#     Step Nr.          Time[fs]        Kin.[a.u.]          Temp[K]            Pot.[a.u.]        Cons Qty[a.u.]        UsedTime[s]
         0            0.000000         0.275037913       300.000000000     -1103.072224874     -1102.797186961         0.000000000
         1            0.500000         0.281275181       306.803354667     -1103.080386986     -1102.797334868      1581.840448063
        10            5.000000         0.309604219       337.703499980     -1103.134790245     -1102.797885376       357.498057839
        11            5.500000         0.317779319       346.620562084     -1103.136810941     -1102.797923665        72.259001452
         2            1.000000         0.275101534       300.069395706     -1103.092955723     -1102.797607456       136.177678827
        12            6.000000         0.316198621       344.896401293     -1103.137807909     -1102.797978070        72.363017723
        13            6.500000         0.306773555       334.615928106     -1103.138295256     -1102.797986305        66.216974106
         3            1.500000         0.286291062       312.274471200     -1103.109011384     -1102.797965827       136.006925698
        14            7.000000         0.306199110       333.989348136     -1103.138295490     -1102.797963110        65.450056452
        15            7.500000         0.303421451       330.959591886     -1103.138690694     -1102.797910594        67.503969353
         4            2.000000         0.288037844       314.179788344     -1103.122230271     -1102.798197536       139.091907084
        16            8.000000         0.297577515       324.585267369     -1103.140517779     -1102.797918440        66.942046136
        17            8.500000         0.291333385       317.774428654     -1103.142772659     -1102.798012172        66.514011145
         5            2.500000         0.303412635       330.949975617     -1103.132080341     -1102.798294382       139.787991736
        18            9.000000         0.291907748       318.400920169     -1103.144453663     -1102.798084497        67.360976104
        19            9.500000         0.285368315       311.267976656     -1103.146021082     -1102.798144068        66.924045537
         6            3.000000         0.326705707       356.357096824     -1103.138467314     -1102.798262217       143.314910050
         7            3.500000         0.325239196       354.757487425     -1103.140043834     -1102.798114718       141.130981266
         8            4.000000         0.326565033       356.203655968     -1103.141138169     -1102.798024006       141.772928528
        20           10.000000         0.299143479       326.293357056     -1103.148288012     -1102.798157359       418.166065246
         9            4.500000         0.316209264       344.908009926     -1103.138536479     -1102.797963675       139.915973827
        21           10.500000         0.310930020       339.149628858     -1103.149772275     -1102.798125851        66.816977028
        22           11.000000         0.306129652       333.913585971     -1103.148762950     -1102.798049460        65.618036062
        23           11.500000         0.312746175       341.130615710     -1103.146379739     -1102.797972945        65.994018819
        24           12.000000         0.301705096       329.087463236     -1103.144140330     -1102.797878772        67.116961513
        25           12.500000         0.286886237       312.923663411     -1103.142585913     -1102.797804646        65.759042993
        26           13.000000         0.285673419       311.600771210     -1103.143511258     -1102.797758795        66.854972217
        27           13.500000         0.300814569       328.116112954     -1103.146803966     -1102.797754107        66.089048699
        28           14.000000         0.288883610       315.102315418     -1103.153345561     -1102.797801102        65.375004366
        29           14.500000         0.298010882       325.057966284     -1103.163032317     -1102.797934962        64.997968916
        10            5.000000         0.309604219       337.703499980     -1103.134790245     -1102.797885376       748.943736628
        11            5.500000         0.317779319       346.620562084     -1103.136810941     -1102.797923665       141.263960648
        30           15.000000         0.314667449       343.226262007     -1103.172863510     -1102.798053312       467.731084522
        12            6.000000         0.316198621       344.896401293     -1103.137807909     -1102.797978070       141.250923567
        31           15.500000         0.336381785       366.911363899     -1103.182174497     -1102.798132230        67.181003112
        32           16.000000         0.333933361       364.240723227     -1103.189164828     -1102.798209509        65.896003779
        13            6.500000         0.306773555       334.615928106     -1103.138295256     -1102.797986305       129.275971126
        33           16.500000         0.326210735       355.817201503     -1103.193643382     -1102.798294813        66.536966402
        34           17.000000         0.327912098       357.672978931     -1103.196911656     -1102.798427333        65.899041377
        14            7.000000         0.306199110       333.989348136     -1103.138295490     -1102.797963110       128.221914973
        35           17.500000         0.312459437       340.817853515     -1103.192399445     -1102.798453244        59.348966621
        36           18.000000         0.304827397       332.493139582     -1103.186504017     -1102.798347208        67.570042267
        15            7.500000         0.303421451       330.959591886     -1103.138690694     -1102.797910594       129.122018710
        37           18.500000         0.309504586       337.594824256     -1103.180391067     -1102.798076808        65.591003451
        38           19.000000         0.288133723       314.284369484     -1103.175494867     -1102.797796426        66.455971602
        16            8.000000         0.297577515       324.585267369     -1103.140517779     -1102.797918440       130.757889889
        39           19.500000         0.286576864       312.586212021     -1103.179206775     -1102.797910768        65.866033286
        17            8.500000         0.291333385       317.774428654     -1103.142772659     -1102.798012172       129.285004489
        18            9.000000         0.291907748       318.400920169     -1103.144453663     -1102.798084497       129.426915210
        19            9.500000         0.285368315       311.267976656     -1103.146021082     -1102.798144068       127.733977966
        40           20.000000         0.295635513       322.467012338     -1103.191716323     -1102.798365646       527.027040649
        41           20.500000         0.316925643       345.689407147     -1103.204449841     -1102.798690180        59.431969531
        42           21.000000         0.322351745       351.607974807     -1103.209619812     -1102.798766028        59.162038915
        43           21.500000         0.315101312       343.699501696     -1103.208821880     -1102.798691335        58.596969623
        44           22.000000         0.303484799       331.028689796     -1103.207100855     -1102.798601689        65.790044717
        45           22.500000         0.295070608       321.850837044     -1103.204576675     -1102.798545283        66.512969173
        46           23.000000         0.290627270       317.004227927     -1103.202657957     -1102.798542795        60.194038939
        47           23.500000         0.290147023       316.480393843     -1103.203291220     -1102.798604934        59.288020428
        48           24.000000         0.287856038       313.981481764     -1103.204972686     -1102.798665119        61.241954595
        49           24.500000         0.304608630       332.254518253     -1103.208042553     -1102.798682258        59.508004796
        20           10.000000         0.299143479       326.293357056     -1103.148288012     -1102.798157359       827.133681212
        21           10.500000         0.310930020       339.149628858     -1103.149772275     -1102.798125851       128.615911402
        22           11.000000         0.306129652       333.913585971     -1103.148762950     -1102.798049460       129.306991126
        50           25.000000         0.299803555       327.013340481     -1103.209277178     -1102.798623914       418.658077821
        23           11.500000         0.312746175       341.130615710     -1103.146379739     -1102.797972945       127.515920397
        51           25.500000         0.298721952       325.833572198     -1103.207376565     -1102.798486764        59.165959142
        52           26.000000         0.298760769       325.875912585     -1103.208361831     -1102.798466027        59.398044769
        53           26.500000         0.309031368       337.078657639     -1103.210634313     -1102.798536604        58.905965146
        24           12.000000         0.301705096       329.087463236     -1103.144140330     -1102.797878772       128.724993803
        54           27.000000         0.303907297       331.489533084     -1103.213575784     -1102.798629014        58.918048579
        55           27.500000         0.293985914       320.667697966     -1103.216617685     -1102.798682258        59.216963232
        25           12.500000         0.286886237       312.923663411     -1103.142585913     -1102.797804646       132.110903215
        56           28.000000         0.280801702       306.286903319     -1103.218387697     -1102.798685095        60.700036973
        57           28.500000         0.287359166       313.439514402     -1103.217093489     -1102.798658640        59.141972553
        26           13.000000         0.285673419       311.600771210     -1103.143511258     -1102.797758795       128.490999695
        58           29.000000         0.292557009       319.109107585     -1103.211275621     -1102.798543205        59.772038300
        59           29.500000         0.293722015       320.379848007     -1103.206219153     -1102.798438919        61.256972663
        27           13.500000         0.300814569       328.116112954     -1103.146803966     -1102.797754107       129.095916126
        28           14.000000         0.288883610       315.102315418     -1103.153345561     -1102.797801102       130.126007635
        29           14.500000         0.298010882       325.057966284     -1103.163032317     -1102.797934962       129.590885371
        60           30.000000         0.279789248       305.182560000     -1103.203329099     -1102.798355287       396.802080639
        61           30.500000         0.291540065       317.999866098     -1103.203737285     -1102.798364595        59.426000096
        62           31.000000         0.298537452       325.632327779     -1103.205975679     -1102.798402639        59.253968000
        63           31.500000         0.312054951       340.376657243     -1103.208717354     -1102.798454001        58.657038547
        64           32.000000         0.311194829       339.438471705     -1103.211505190     -1102.798564844        59.743971113
        65           32.500000         0.309050448       337.099469345     -1103.210090850     -1102.798598739        60.769030899
        66           33.000000         0.322849108       352.150478510     -1103.205803073     -1102.798516811        60.535001460
        67           33.500000         0.319212336       348.183637044     -1103.200608683     -1102.798370230        59.307017080
        68           34.000000         0.320098201       349.149901790     -1103.192083758     -1102.798212650        59.474008165
        69           34.500000         0.311152561       339.392367116     -1103.184457459     -1102.798111345        59.953974925
        30           15.000000         0.314667449       343.226262007     -1103.172863510     -1102.798053312       948.092608426
        70           35.000000         0.308223156       336.197093008     -1103.179590925     -1102.798065794       414.952077158
        31           15.500000         0.336381785       366.911363899     -1103.182174497     -1102.798132230       128.227916110
        71           35.500000         0.295762661       322.605699619     -1103.178758866     -1102.798086014        58.790973324
        72           36.000000         0.289093248       315.330980068     -1103.181070301     -1102.798131306        59.416040786
        32           16.000000         0.333933361       364.240723227     -1103.189164828     -1102.798209509       130.060016755
        73           36.500000         0.296758983       323.692446588     -1103.184856514     -1102.798181179        58.034020942
        74           37.000000         0.283301770       309.013874474     -1103.189687686     -1102.798296325        59.878949724
        33           16.500000         0.326210735       355.817201503     -1103.193643382     -1102.798294813       129.959859334
        75           37.500000         0.307287550       335.176573490     -1103.193978294     -1102.798424785        57.858044378
        76           38.000000         0.294079168       320.769415788     -1103.193067712     -1102.798390848        58.714970220
        77           38.500000         0.273095154       297.880919070     -1103.191496856     -1102.798317875        59.554055911
        34           17.000000         0.327912098       357.672978931     -1103.196911656     -1102.798427333       127.710940290
        78           39.000000         0.276777888       301.897893539     -1103.187570921     -1102.798193963        58.563961674
        79           39.500000         0.261582633       285.323536793     -1103.184134653     -1102.798069297        58.288041014
        35           17.500000         0.312459437       340.817853515     -1103.192399445     -1102.798453244       115.798963439
        36           18.000000         0.304827397       332.493139582     -1103.186504017     -1102.798347208       126.859911267
        37           18.500000         0.309504586       337.594824256     -1103.180391067     -1102.798076808       128.698951926
        38           19.000000         0.288133723       314.284369484     -1103.175494867     -1102.797796426       128.576913148
        80           40.000000         0.258551179       282.016952135     -1103.183538370     -1102.797968391       454.003064781
        39           19.500000         0.286576864       312.586212021     -1103.179206775     -1102.797910768       128.313987173
        81           40.500000         0.271981952       296.666683905     -1103.188770723     -1102.798060287        59.598966580
        82           41.000000         0.276599312       301.703110168     -1103.197703177     -1102.798263999        59.206037130
        83           41.500000         0.287523196       313.618432082     -1103.206629278     -1102.798478569        58.444013573
        84           42.000000         0.293699689       320.355495162     -1103.212172880     -1102.798586463        58.848966703
        85           42.500000         0.295464181       322.280130831     -1103.210721047     -1102.798547497        58.119034912
        86           43.000000         0.284677774       310.514762406     -1103.207836639     -1102.798473633        58.364966050
        87           43.500000         0.275464978       300.465825670     -1103.206884938     -1102.798448603        58.311442494
        88           44.000000         0.280293150       305.732195877     -1103.204895811     -1102.798385972        57.970586382
        89           44.500000         0.275886339       300.925428773     -1103.203155127     -1102.798367975        59.408028103
        90           45.000000         0.269718793       294.198124488     -1103.202842876     -1102.798408455       471.990035184
        91           45.500000         0.282952851       308.633287840     -1103.203435972     -1102.798455488        59.846007198
        92           46.000000         0.287750817       313.866710813     -1103.202194633     -1102.798425766        58.008964293
        40           20.000000         0.295635513       322.467012338     -1103.191716323     -1102.798365646      1065.196503326
        93           46.500000         0.284437844       310.253057053     -1103.198493161     -1102.798306898        58.561033394
        94           47.000000         0.262236463       286.036707625     -1103.193963085     -1102.798205664        57.959966637
        41           20.500000         0.316925643       345.689407147     -1103.204449841     -1102.798690180       116.477925263
        95           47.500000         0.268366960       292.723600219     -1103.192058737     -1102.798180715        58.739038114
        96           48.000000         0.273218598       298.015567006     -1103.191228586     -1102.798151474        59.638957728
        42           21.000000         0.322351745       351.607974807     -1103.209619812     -1102.798766028       117.865988307
        97           48.500000         0.273209308       298.005433766     -1103.191828065     -1102.798124196        59.550038759
        98           49.000000         0.271879948       296.555422509     -1103.194477138     -1102.798198268        58.809973285
        43           21.500000         0.315101312       343.699501696     -1103.208821880     -1102.798691335       118.374919474
        99           49.500000         0.291679501       318.151957922     -1103.197249934     -1102.798287302        59.344039131
        44           22.000000         0.303484799       331.028689796     -1103.207100855     -1102.798601689       128.309013516
        45           22.500000         0.295070608       321.850837044     -1103.204576675     -1102.798545283       130.406896673
        46           23.000000         0.290627270       317.004227927     -1103.202657957     -1102.798542795       118.725962266
       100           50.000000         0.268525854       292.896915304     -1103.199843434     -1102.798372484       386.836017370
        47           23.500000         0.290147023       316.480393843     -1103.203291220     -1102.798604934       117.843999021
       101           50.500000         0.267368667       291.634703426     -1103.199872750     -1102.798343229        60.054956533
       102           51.000000         0.269040610       293.458389473     -1103.197463950     -1102.798257805        58.013045255
        48           24.000000         0.287856038       313.981481764     -1103.204972686     -1102.798665119       117.943936024
       103           51.500000         0.266273285       290.439905627     -1103.194394980     -1102.798144808        55.288965728
       104           52.000000         0.260508895       284.152347474     -1103.194378702     -1102.798145819        57.468042102
        49           24.500000         0.304608630       332.254518253     -1103.208042553     -1102.798682258       117.326981846
       105           52.500000         0.261893441       285.662553477     -1103.196766189     -1102.798206156        59.122967631
       106           53.000000         0.265611145       289.717671396     -1103.200984021     -1102.798283216        58.909037348
       107           53.500000         0.273545850       298.372519855     -1103.207239627     -1102.798383164        60.080969382
       108           54.000000         0.260705957       284.367294999     -1103.213804513     -1102.798519007        58.203036137
       109           54.500000         0.266633124       290.832403370     -1103.219157744     -1102.798656770        58.700982090
       110           55.000000         0.258780840       282.267456650     -1103.220053509     -1102.798697489       462.287088010
       111           55.500000         0.262794153       286.645012396     -1103.218294705     -1102.798643814        59.554952763
       112           56.000000         0.277222324       302.382665382     -1103.215749884     -1102.798554874        58.827027023
        50           25.000000         0.299803555       327.013340481     -1103.209277178     -1102.798623914       848.884737022
       113           56.500000         0.271519783       296.162569949     -1103.214221859     -1102.798521970        57.967982054
       114           57.000000         0.279422071       304.782058879     -1103.214442266     -1102.798532396        57.985034849
        51           25.500000         0.298721952       325.833572198     -1103.207376565     -1102.798486764       117.396926656
       115           57.500000         0.274387998       299.291100149     -1103.214704259     -1102.798519305        58.444970157
       116           58.000000         0.264692674       288.715840665     -1103.214847640     -1102.798543760        58.816054828
        52           26.000000         0.298760769       325.875912585     -1103.208361831     -1102.798466027       117.237990476
       117           58.500000         0.264006646       287.967549333     -1103.215806738     -1102.798596951        58.451952584
       118           59.000000         0.281295232       306.825225514     -1103.216786088     -1102.798626942        58.568033062
        53           26.500000         0.309031368       337.078657639     -1103.210634313     -1102.798536604       117.299915496
       119           59.500000         0.277954644       303.181450542     -1103.215055702     -1102.798594304        59.488966621
        54           27.000000         0.303907297       331.489533084     -1103.213575784     -1102.798629014       116.772994351
        55           27.500000         0.293985914       320.667697966     -1103.216617685     -1102.798682258       119.143936314
        56           28.000000         0.280801702       306.286903319     -1103.218387697     -1102.798685095       117.599959236
       120           60.000000         0.271970697       296.654407925     -1103.210608238     -1102.798473491       405.357085105
        57           28.500000         0.287359166       313.439514402     -1103.217093489     -1102.798658640       119.002970867
       121           60.500000         0.253435132       276.436579236     -1103.207076063     -1102.798382776        58.110998236
       122           61.000000         0.254959233       278.099005054     -1103.205762155     -1102.798356423        58.305986367
        58           29.000000         0.292557009       319.109107585     -1103.211275621     -1102.798543205       119.859925523
       123           61.500000         0.260408767       284.043132327     -1103.207268446     -1102.798379019        58.985031862
       124           62.000000         0.269791323       294.277236379     -1103.208885186     -1102.798423054        58.664955139
        59           29.500000         0.293722015       320.379848007     -1103.206219153     -1102.798438919       118.854003683
       125           62.500000         0.277772726       302.983021389     -1103.212300659     -1102.798517894        59.369076736
       126           63.000000         0.285103203       310.978803037     -1103.213468900     -1102.798510424        59.071950432
       127           63.500000         0.293759963       320.421239538     -1103.213063170     -1102.798452187        58.545037951
       128           64.000000         0.285221862       311.108231481     -1103.209938649     -1102.798340590        57.938965604
       129           64.500000         0.286618578       312.631711784     -1103.209175328     -1102.798268698        57.826046538
       130           65.000000         0.299380155       326.551512676     -1103.213457615     -1102.798339891       377.293035787
       131           65.500000         0.278108091       303.348824025     -1103.218355994     -1102.798439103        56.347016908
       132           66.000000         0.269040297       293.458048206     -1103.219437064     -1102.798474315        57.898957770
       133           66.500000         0.288378079       314.550902484     -1103.218085335     -1102.798453319        58.938059703
        60           30.000000         0.279789248       305.182560000     -1103.203329099     -1102.798355287       810.055587605
       134           67.000000         0.285176462       311.058711448     -1103.214998962     -1102.798349099        59.331988391
       135           67.500000         0.272495952       297.227334637     -1103.210568187     -1102.798182908        58.524966151
        61           30.500000         0.291540065       317.999866098     -1103.203737285     -1102.798364595       116.344913937
       136           68.000000         0.273919772       298.780377981     -1103.209669391     -1102.798107843        58.455040704
       137           68.500000         0.287665229       313.773354958     -1103.213270224     -1102.798190520        59.233972669
        62           31.000000         0.298537452       325.632327779     -1103.205975679     -1102.798402639       117.479996305
       138           69.000000         0.299289231       326.452337212     -1103.216533278     -1102.798283787        58.331043422
       139           69.500000         0.293122308       319.725712114     -1103.218853460     -1102.798367867        59.297973346
        63           31.500000         0.312054951       340.376657243     -1103.208717354     -1102.798454001       117.590907309
        64           32.000000         0.311194829       339.438471705     -1103.211505190     -1102.798564844       119.522955801
        65           32.500000         0.309050448       337.099469345     -1103.210090850     -1102.798598739       117.269981828
        66           33.000000         0.322849108       352.150478510     -1103.205803073     -1102.798516811       117.843919706
        67           33.500000         0.319212336       348.183637044     -1103.200608683     -1102.798370230       116.747979686
       140           70.000000         0.291845720       318.333262846     -1103.219057221     -1102.798397440       488.106056727
       141           70.500000         0.282476139       308.113310459     -1103.216558296     -1102.798366958        58.537960645
        68           34.000000         0.320098201       349.149901790     -1103.192083758     -1102.798212650       116.770917337
       142           71.000000         0.287984175       314.121248733     -1103.215629499     -1102.798400016        58.530051794
       143           71.500000         0.275725421       300.749906131     -1103.216043064     -1102.798465701        57.901958667
        69           34.500000         0.311152561       339.392367116     -1103.184457459     -1102.798111345       118.022007104
       144           72.000000         0.270060523       294.570868759     -1103.214948434     -1102.798460689        57.739039440
       145           72.500000         0.270031535       294.539250227     -1103.212045402     -1102.798390193        59.794975206
       146           73.000000         0.250562424       273.303147170     -1103.208809074     -1102.798303668        59.999049839
       147           73.500000         0.249312406       271.939679455     -1103.206495238     -1102.798250277        58.006951146
       148           74.000000         0.255649907       278.852363494     -1103.205687004     -1102.798214209        58.750043817
       149           74.500000         0.267995412       292.318330823     -1103.207558817     -1102.798264073        59.383968484
       150           75.000000         0.269830593       294.320070924     -1103.213662581     -1102.798411124       378.908844225
       151           75.500000         0.281934913       307.522963573     -1103.220141945     -1102.798522728        57.579007987
       152           76.000000         0.271446677       296.082828511     -1103.220613085     -1102.798432356        57.748007122
        70           35.000000         0.308223156       336.197093008     -1103.179590925     -1102.798065794       842.254457131
       153           76.500000         0.269960014       294.461237440     -1103.219085003     -1102.798286207        58.459966637
       154           77.000000         0.279291645       304.639795986     -1103.219383233     -1102.798207615        58.660042588
        71           35.500000         0.295762661       322.605699619     -1103.178758866     -1102.798086014       117.525871020
       155           77.500000         0.274137094       299.017423968     -1103.224228504     -1102.798312309        58.494005367
       156           78.000000         0.282828579       308.497736947     -1103.228672907     -1102.798418909        58.251012679
        72           36.000000         0.289093248       315.330980068     -1103.181070301     -1102.798131306       117.649979014
       157           78.500000         0.287575920       313.675941322     -1103.233569340     -1102.798524148        64.288024899
       158           79.000000         0.300122215       327.360921501     -1103.236774221     -1102.798566134        58.216976617
        73           36.500000         0.296758983       323.692446588     -1103.184856514     -1102.798181179       116.433914635
       159           79.500000         0.299546396       326.732841883     -1103.235157863     -1102.798456296        58.476960622
        74           37.000000         0.283301770       309.013874474     -1103.189687686     -1102.798296325       120.740975779
        75           37.500000         0.307287550       335.176573490     -1103.193978294     -1102.798424785       116.089912258
        76           38.000000         0.294079168       320.769415788     -1103.193067712     -1102.798390848       118.449959204
       160           80.000000         0.293227524       319.840476795     -1103.229135139     -1102.798299220       418.167986438