 DBCSR| CPU Multiplication driver                                           XSMM
 DBCSR| Multrec recursion limit                                              512
 DBCSR| Multiplication stack size                                           1000
 DBCSR| Maximum elements for images                                    UNLIMITED
 DBCSR| Multiplicative factor virtual images                                   1
 DBCSR| Use multiplication densification                                       T
 DBCSR| Multiplication size stacks                                             3
 DBCSR| Use memory pool for CPU allocation                                     F
 DBCSR| Number of 3D layers                                               SINGLE
 DBCSR| Use MPI memory allocation                                              F
 DBCSR| Use RMA algorithm                                                      F
 DBCSR| Use Communication thread                                               T
 DBCSR| Communication thread load                                             87
 DBCSR| MPI: My node id                                                        0
 DBCSR| MPI: Number of nodes                                                  12
 DBCSR| OMP: Current number of threads                                         1
 DBCSR| OMP: Max number of threads                                             1
 DBCSR| Split modifier for TAS multiplication algorithm                  1.0E+00


  **** **** ******  **  PROGRAM STARTED AT               2024-11-21 15:55:06.172
 ***** ** ***  *** **   PROGRAM STARTED ON                     cm037.hpc.nyu.edu
 **    ****   ******    PROGRAM STARTED BY                               rjs9331
 ***** **    ** ** **   PROGRAM PROCESS ID                               4032929
  **** **  *******  **  PROGRAM STARTED IN /home/rjs9331/comp-lab/comp-lab-class
                                           -2024/Week12-IntroAIMD/Runs_proton

 CP2K| version string:                    CP2K version 8.0 (Development Version)
 CP2K| source code revision number:                                  git:8c64c6e
 CP2K| cp2kflags: omp libint fftw3 libxc elpa parallel mpi3 scalapack xsmm max_c
 CP2K|            ontr=4 mkl
 CP2K| is freely available from                            https://www.cp2k.org/
 CP2K| Program compiled at                          Sat Dec 12 18:27:15 EST 2020
 CP2K| Program compiled on                                     cs001.nyu.cluster
 CP2K| Program compiled for                                            nyu-intel
 CP2K| Data directory path                    /home/wang/cp2k-20201212/cp2k/data
 CP2K| Input file name                                                proton.inp
 
 GLOBAL| Force Environment number                                              1
 GLOBAL| Basis set file name                                           HFX_BASIS
 GLOBAL| Potential file name                                      GTH_POTENTIALS
 GLOBAL| MM Potential file name                                     MM_POTENTIAL
 GLOBAL| Coordinate file name                                         proton.xyz
 GLOBAL| Method name                                                        CP2K
 GLOBAL| Project name                                            proton_aimd_1ps
 GLOBAL| Preferred FFT library                                             FFTW3
 GLOBAL| Preferred diagonalization lib.                                     ELPA
 GLOBAL| Run type                                                             MD
 GLOBAL| All-to-all communication in single precision                          F
 GLOBAL| FFTs using library dependent lengths                                  F
 GLOBAL| Global print level                                                  LOW
 GLOBAL| MPI I/O enabled                                                       T
 GLOBAL| Total number of message passing processes                            12
 GLOBAL| Number of threads for this process                                    1
 GLOBAL| This output is from process                                           0
 GLOBAL| CPU model name             Intel(R) Xeon(R) Platinum 8268 CPU @ 2.90GHz
 GLOBAL| CPUID                                                              1003
 GLOBAL| Compiled for CPUID                                                    0

 *** HINT in environment.F:801 :: The compiler target flags (generic) used ***
 *** to build this binary cannot exploit all extensions of this CPU model  ***
 *** (x86_avx512). Consider compiler target flags as part of FCFLAGS and   ***
 *** CFLAGS (ARCH file).                                                   ***


 MEMORY| system memory details [Kb]
 MEMORY|                        rank 0           min           max       average
 MEMORY| MemTotal            395391456     395391456     395391456     395391456
 MEMORY| MemFree             349454332     349454332     349454836     349454752
 MEMORY| Buffers                 62852         62852         62852         62852
 MEMORY| Cached               13053428      13052924      13053428      13052966
 MEMORY| Slab                  1305744       1305744       1305744       1305744
 MEMORY| SReclaimable           671800        671800        671800        671800
 MEMORY| MemLikelyFree       363242412     363241908     363242412     363242370

 
 GENERATE|  Preliminary Number of Bonds generated:                             0
 GENERATE|  Achieved consistency in connectivity generation.

 *******************************************************************************
 *******************************************************************************
 **                                                                           **
 **     #####                         ##              ##                      **
 **    ##   ##            ##          ##              ##                      **
 **   ##     ##                       ##            ######                    **
 **   ##     ##  ##   ##  ##   #####  ##  ##   ####   ##    #####    #####    **
 **   ##     ##  ##   ##  ##  ##      ## ##   ##      ##   ##   ##  ##   ##   **
 **   ##  ## ##  ##   ##  ##  ##      ####     ###    ##   ######   ######    **
 **    ##  ###   ##   ##  ##  ##      ## ##      ##   ##   ##       ##        **
 **     #######   #####   ##   #####  ##  ##  ####    ##    #####   ##        **
 **           ##                                                    ##        **
 **                                                                           **
 **                                                ... make the atoms dance   **
 **                                                                           **
 **            Copyright (C) by CP2K developers group (2000 - 2020)           **
 **                      J. Chem. Phys. 152, 194103 (2020)                    **
 **                                                                           **
 *******************************************************************************


 TOTAL NUMBERS AND MAXIMUM NUMBERS

  Total number of            - Atomic kinds:                                   2
                             - Atoms:                                        193
                             - Shell sets:                                   579
                             - Shells:                                       707
                             - Primitive Cartesian functions:                965
                             - Cartesian basis functions:                   1541
                             - Spherical basis functions:                   1477

  Maximum angular momentum of- Orbital basis functions:                        2
                             - Local part of the GTH pseudopotential:          2
                             - Non-local part of the GTH pseudopotential:      0


 SCF PARAMETERS         Density guess:                                    ATOMIC
                        --------------------------------------------------------
                        max_scf:                                              30
                        max_scf_history:                                       0
                        max_diis:                                              4
                        --------------------------------------------------------
                        eps_scf:                                        1.00E-06
                        eps_scf_history:                                0.00E+00
                        eps_diis:                                       1.00E-01
                        eps_eigval:                                     1.00E-05
                        --------------------------------------------------------
                        level_shift [a.u.]:                                 0.00
                        --------------------------------------------------------
                        Outer loop SCF in use 
                        No variables optimised in outer loop
                        eps_scf                                         1.00E-06
                        max_scf                                               10
                        No outer loop optimization
                        step_size                                       5.00E-01
 
 MD_PAR| Molecular dynamics protocol (MD input parameters)
 MD_PAR| Ensemble type                                                       NVT
 MD_PAR| Number of time steps                                               2000
 MD_PAR| Time step [fs]                                                 0.500000
 MD_PAR| Temperature [K]                                              300.000000
 MD_PAR| Temperature tolerance [K]                                      0.000000
 MD_PAR| Print MD information every                                    1 step(s)
 MD_PAR| File type   Print frequency [steps]                          File names
 MD_PAR| Coordinates          1                        proton_aimd_1ps-pos-1.xyz
 MD_PAR| Velocities           1                        proton_aimd_1ps-vel-1.xyz
 MD_PAR| Energies             1                           proton_aimd_1ps-1.ener
 MD_PAR| Dump                 1                        proton_aimd_1ps-1.restart

 ROT| Rotational analysis information
 ROT| Principal axes and moments of inertia [a.u.]
 ROT|                           1                   2                   3
 ROT| Eigenvalues      2.06059014724E+08   2.18879272349E+08   2.44836289368E+08
 ROT|      x              0.422127654763     -0.514312862442      0.746518936539
 ROT|      y              0.905853838271      0.207359177731     -0.369365665838
 ROT|      z              0.035171960043      0.832156506276      0.553424323904
 ROT| Number of rotovibrational vectors                                        6

 DOF| Calculation of degrees of freedom
 DOF| Number of atoms                                                        193
 DOF| Number of intramolecular constraints                                     0
 DOF| Number of intermolecular constraints                                     0
 DOF| Invariants (translations + rotations)                                    0
 DOF| Degrees of freedom                                                     579

 DOF| Restraints information
 DOF| Number of intramolecular restraints                                      0
 DOF| Number of intermolecular restraints                                      0

 THERMOSTAT| Thermostat information for PARTICLES
 THERMOSTAT| End of thermostat information for PARTICLES

 MD_VEL| Velocities initialization
 MD_VEL| Initial temperature [K]                                      300.000000
 MD_VEL| COM velocity            -0.0000000000    -0.0000000000    -0.0000000000

 Number of electrons:                                                        512
 Number of occupied orbitals:                                                256
 Number of molecular orbitals:                                               256

 Number of orbital functions:                                               1477
 Number of independent orbital functions:                                   1477

 Extrapolation method: initial_guess


 SCF WAVEFUNCTION OPTIMIZATION

  ----------------------------------- OT ---------------------------------------
  Minimizer      : DIIS                : direct inversion
                                         in the iterative subspace
                                         using   7 DIIS vectors
                                         safer DIIS on
  Preconditioner : FULL_SINGLE_INVERSE : inversion of 
                                         H + eS - 2*(Sc)(c^T*H*c+const)(Sc)^T
  Precond_solver : DEFAULT
  stepsize       :    0.08000000                  energy_gap     :    0.08000000
  eps_taylor     :   0.10000E-15                  max_taylor     :             4
  ----------------------------------- OT ---------------------------------------

  Step     Update method      Time    Convergence         Total energy    Change
  ------------------------------------------------------------------------------
     1 OT DIIS     0.80E-01   47.5     0.02927686     -1059.7677957757 -1.06E+03
     2 OT DIIS     0.80E-01   19.3     0.02081488     -1079.2743439856 -1.95E+01
     3 OT DIIS     0.80E-01   20.8     0.01626223     -1089.6927154233 -1.04E+01
     4 OT DIIS     0.80E-01   19.4     0.00984504     -1097.6946060002 -8.00E+00
     5 OT DIIS     0.80E-01   20.5     0.00603594     -1100.4248604299 -2.73E+00
     6 OT DIIS     0.80E-01   19.0     0.00437783     -1101.5937305018 -1.17E+00
     7 OT DIIS     0.80E-01   19.3     0.00336828     -1102.0939905336 -5.00E-01
     8 OT DIIS     0.80E-01   21.8     0.00281464     -1102.4447753390 -3.51E-01
     9 OT DIIS     0.80E-01   19.4     0.00222079     -1102.6792248690 -2.34E-01
    10 OT DIIS     0.80E-01   20.9     0.00157063     -1102.8459167869 -1.67E-01
    11 OT DIIS     0.80E-01   19.3     0.00114736     -1102.9180587556 -7.21E-02
    12 OT DIIS     0.80E-01   20.9     0.00121497     -1102.9401149244 -2.21E-02
    13 OT DIIS     0.80E-01   19.7     0.00068885     -1103.0003982994 -6.03E-02
    14 OT DIIS     0.80E-01   19.5     0.00054648     -1103.0240394103 -2.36E-02
    15 OT DIIS     0.80E-01   19.5     0.00043048     -1103.0459548160 -2.19E-02
    16 OT DIIS     0.80E-01   19.8     0.00025927     -1103.0577842953 -1.18E-02
    17 OT DIIS     0.80E-01   20.4     0.00019704     -1103.0628285162 -5.04E-03
    18 OT DIIS     0.80E-01   19.5     0.00015023     -1103.0654066076 -2.58E-03
    19 OT DIIS     0.80E-01   19.1     0.00011602     -1103.0669641785 -1.56E-03
    20 OT DIIS     0.80E-01   21.6     0.00009490     -1103.0680316518 -1.07E-03
    21 OT DIIS     0.80E-01   19.1     0.00007893     -1103.0687200726 -6.88E-04
    22 OT DIIS     0.80E-01   19.2     0.00006924     -1103.0691963105 -4.76E-04
    23 OT DIIS     0.80E-01   20.1     0.00005879     -1103.0696397415 -4.43E-04
    24 OT DIIS     0.80E-01   21.2     0.00005025     -1103.0700528691 -4.13E-04
    25 OT DIIS     0.80E-01   21.0     0.00004542     -1103.0703027727 -2.50E-04
    26 OT DIIS     0.80E-01   19.5     0.00004018     -1103.0705633014 -2.61E-04
    27 OT DIIS     0.80E-01   20.8     0.00003597     -1103.0707489445 -1.86E-04
    28 OT DIIS     0.80E-01   19.6     0.00003223     -1103.0709191160 -1.70E-04
    29 OT DIIS     0.80E-01   19.6     0.00002955     -1103.0710563232 -1.37E-04
    30 OT DIIS     0.80E-01   19.7     0.00002667     -1103.0711884060 -1.32E-04

  Leaving inner SCF loop after reaching    30 steps.


  Electronic density on regular grids:       -511.9999999887        0.0000000113
  Core density on regular grids:              512.9999999831       -0.0000000169
  Total charge density on r-space grids:        0.9999999944
  Total charge density g-space grids:           0.9999999944

  Overlap energy of the core charge distribution:               0.00000237830932
  Self energy of the core charge distribution:              -2839.62839375007934
  Core Hamiltonian energy:                                    830.02146095930880
  Hartree energy:                                            1178.72270900855005
  Exchange-correlation energy:                               -271.93877242903511
  Dispersion energy:                                           -0.24819457309659

  Total energy:                                             -1103.07118840604244

  outer SCF iter =    1 RMS gradient =   0.27E-04 energy =      -1103.0711884060

  ----------------------------------- OT ---------------------------------------
  Minimizer      : DIIS                : direct inversion
                                         in the iterative subspace
                                         using   7 DIIS vectors
                                         safer DIIS on
  Preconditioner : FULL_SINGLE_INVERSE : inversion of 
                                         H + eS - 2*(Sc)(c^T*H*c+const)(Sc)^T
  Precond_solver : DEFAULT
  stepsize       :    0.08000000                  energy_gap     :    0.08000000
  eps_taylor     :   0.10000E-15                  max_taylor     :             4
  ----------------------------------- OT ---------------------------------------

  Step     Update method      Time    Convergence         Total energy    Change
  ------------------------------------------------------------------------------
     1 OT DIIS     0.80E-01   57.8     0.00015448     -1103.0712747617 -8.64E-05
     2 OT DIIS     0.80E-01   11.1     0.00009406     -1103.0718480030 -5.73E-04
     3 OT DIIS     0.80E-01   10.9     0.00003136     -1103.0721929120 -3.45E-04
     4 OT DIIS     0.80E-01   11.4     0.00002669     -1103.0722153631 -2.25E-05
     5 OT DIIS     0.80E-01   11.1     0.00001364     -1103.0722217706 -6.41E-06
     6 OT DIIS     0.80E-01   11.5     0.00000555     -1103.0722240876 -2.32E-06
     7 OT DIIS     0.80E-01   11.2     0.00000211     -1103.0722247380 -6.50E-07
     8 OT DIIS     0.80E-01   11.0     0.00000100     -1103.0722248533 -1.15E-07

  *** SCF run converged in     8 steps ***


  Electronic density on regular grids:       -511.9999999887        0.0000000113
  Core density on regular grids:              512.9999999831       -0.0000000169
  Total charge density on r-space grids:        0.9999999944
  Total charge density g-space grids:           0.9999999944

  Overlap energy of the core charge distribution:               0.00000237830932
  Self energy of the core charge distribution:              -2839.62839375007934
  Core Hamiltonian energy:                                    830.01939575069389
  Hartree energy:                                            1178.72413527281742
  Exchange-correlation energy:                               -271.93916993194017
  Dispersion energy:                                           -0.24819457309659

  Total energy:                                             -1103.07222485329498

  outer SCF iter =    2 RMS gradient =   0.10E-05 energy =      -1103.0722248533
  outer SCF loop converged in   2 iterations or   38 steps

  
  Eigenvalues of the occupied subspace spin            1
 ---------------------------------------------
      -1.04565013     -0.84491668     -0.84109958     -0.83519655
      -0.82014980     -0.81982826     -0.81130395     -0.80673952
      -0.80573823     -0.80379986     -0.80124252     -0.79983984
      -0.79951240     -0.79808023     -0.79714158     -0.79681233
      -0.79624419     -0.79577276     -0.79532940     -0.79461287
      -0.79334373     -0.79268356     -0.79059645     -0.78788413
      -0.78709363     -0.78639796     -0.78617121     -0.78534358
      -0.78455051     -0.78331430     -0.78184870     -0.78101478
      -0.78053213     -0.77956599     -0.77747603     -0.77711276
      -0.77637012     -0.77558817     -0.77497452     -0.77404623
      -0.77291289     -0.77266422     -0.77050274     -0.77008342
      -0.76906444     -0.76884521     -0.76824545     -0.76744934
      -0.76718435     -0.76577201     -0.76517452     -0.76377052
      -0.76230454     -0.76031754     -0.75490506     -0.75479550
      -0.75201701     -0.75144058     -0.74962512     -0.74873876
      -0.74597449     -0.74550000     -0.74204379     -0.71935828
      -0.62468884     -0.46758364     -0.41641068     -0.40542018
      -0.39877209     -0.39606854     -0.37695481     -0.37580441
      -0.36951653     -0.36838614     -0.36185305     -0.36154688
      -0.35818734     -0.35713160     -0.35547300     -0.35459317
      -0.35419424     -0.35366852     -0.35338429     -0.35274772
      -0.35089524     -0.35034112     -0.34968650     -0.34871859
      -0.34726126     -0.34699681     -0.34584215     -0.34508745
      -0.34447414     -0.34365673     -0.34286310     -0.34198455
      -0.34161187     -0.34038564     -0.33960317     -0.33901889
      -0.33857881     -0.33710782     -0.33603196     -0.33558840
      -0.33482140     -0.33291667     -0.33141860     -0.33083792
      -0.32966999     -0.32931677     -0.32785829     -0.32643323
      -0.32610801     -0.32596550     -0.32472954     -0.32417528
      -0.32263308     -0.32152059     -0.32108432     -0.31842422
      -0.31656648     -0.31492733     -0.31240778     -0.30881106
      -0.30631585     -0.30377082     -0.30155521     -0.29994952
      -0.29758652     -0.29590186     -0.26875174     -0.26392286
      -0.25786484     -0.25602678     -0.25262042     -0.25014245
      -0.24907513     -0.24604419     -0.24313896     -0.24214477
      -0.24209650     -0.23956234     -0.23747983     -0.23698348
      -0.23375181     -0.23315835     -0.23254037     -0.22941064
      -0.22747400     -0.22681702     -0.22583896     -0.22422564
      -0.22212340     -0.22053890     -0.21815424     -0.21648788
      -0.21439693     -0.21269715     -0.21122778     -0.20959814
      -0.20742032     -0.20685617     -0.20602101     -0.20352025
      -0.20288228     -0.20203361     -0.20058340     -0.19842854
      -0.19777245     -0.19760185     -0.19386538     -0.19306774
      -0.19153031     -0.19088322     -0.18969951     -0.18923526
      -0.18703244     -0.18628330     -0.18464759     -0.18312855
      -0.18234056     -0.18033286     -0.17966667     -0.17659723
      -0.17622047     -0.17481199     -0.17267095     -0.17116845
      -0.16880865     -0.16844944     -0.16775362     -0.16491872
      -0.16407243     -0.16182617     -0.16093650     -0.15637838
      -0.15492357     -0.15250349     -0.14817508     -0.14771209
      -0.14393984     -0.14135377     -0.14098394     -0.14075547
      -0.13998720     -0.13980871     -0.13936835     -0.13782288
      -0.13705664     -0.13702830     -0.13666068     -0.13467227
      -0.13419902     -0.13292141     -0.13256986     -0.13236368
      -0.13079928     -0.13006033     -0.12944670     -0.12819418
      -0.12766602     -0.12732390     -0.12669047     -0.12631310
      -0.12609788     -0.12511939     -0.12460468     -0.12409874
      -0.12340547     -0.12288813     -0.12257391     -0.12139585
      -0.12109145     -0.12007523     -0.11896116     -0.11831606
      -0.11797316     -0.11669428     -0.11631349     -0.11581511
      -0.11496223     -0.11482170     -0.11305680     -0.11189826
      -0.11152886     -0.11125031     -0.11072396     -0.10999984
      -0.10974376     -0.10685072     -0.10497949     -0.10403504
      -0.10298272     -0.10041493     -0.09913071     -0.08371267
 Fermi Energy [eV] :   -2.277938
  
  Lowest Eigenvalues of the unoccupied subspace spin            1
 -----------------------------------------------------
  Reached convergence in           95  iterations 
       0.00685565      0.08208177      0.09683484      0.11995369
  
 HOMO - LUMO gap [eV] :    2.464489

 ENERGY| Total FORCE_EVAL ( QS ) energy [a.u.]:            -1103.072224873586038

 MD_INI| MD initialization
 MD_INI| Potential energy [hartree]                          -0.110307222487E+04
 MD_INI| Kinetic energy [hartree]                             0.275037912564E+00
 MD_INI| Temperature [K]                                              300.000000
 MD_INI| Cell volume [bohr^3]                                 1.292889458088E+04
 MD_INI| Cell volume [ang^3]                                  1.915864488000E+03
 MD_INI| Cell lengths [bohr]      2.34703986E+01  2.34703986E+01  2.34703986E+01
 MD_INI| Cell lengths [ang]       1.24200000E+01  1.24200000E+01  1.24200000E+01
 MD_INI| Cell angles [deg]        9.00000000E+01  9.00000000E+01  9.00000000E+01

 Number of electrons:                                                        512
 Number of occupied orbitals:                                                256
 Number of molecular orbitals:                                               256

 Number of orbital functions:                                               1477
 Number of independent orbital functions:                                   1477

 Extrapolation method: ASPC


 SCF WAVEFUNCTION OPTIMIZATION

  ----------------------------------- OT ---------------------------------------
  Minimizer      : DIIS                : direct inversion
                                         in the iterative subspace
                                         using   7 DIIS vectors
                                         safer DIIS on
  Preconditioner : FULL_SINGLE_INVERSE : inversion of 
                                         H + eS - 2*(Sc)(c^T*H*c+const)(Sc)^T
  Precond_solver : DEFAULT
  stepsize       :    0.08000000                  energy_gap     :    0.08000000
  eps_taylor     :   0.10000E-15                  max_taylor     :             4
  ----------------------------------- OT ---------------------------------------

  Step     Update method      Time    Convergence         Total energy    Change
  ------------------------------------------------------------------------------
     1 OT DIIS     0.80E-01   26.5     0.00034561     -1103.0762128503 -1.10E+03
     2 OT DIIS     0.80E-01   10.9     0.00019481     -1103.0789195666 -2.71E-03
     3 OT DIIS     0.80E-01   11.0     0.00010760     -1103.0800851101 -1.17E-03
     4 OT DIIS     0.80E-01   11.3     0.00008555     -1103.0803010411 -2.16E-04
     5 OT DIIS     0.80E-01   10.9     0.00003466     -1103.0803608262 -5.98E-05
     6 OT DIIS     0.80E-01   11.0     0.00001694     -1103.0803817269 -2.09E-05
     7 OT DIIS     0.80E-01   11.1     0.00000545     -1103.0803861368 -4.41E-06
     8 OT DIIS     0.80E-01   10.9     0.00000262     -1103.0803868148 -6.78E-07
     9 OT DIIS     0.80E-01   10.9     0.00000146     -1103.0803869299 -1.15E-07
    10 OT DIIS     0.80E-01   11.0     0.00000059     -1103.0803869783 -4.83E-08

  *** SCF run converged in    10 steps ***


  Electronic density on regular grids:       -511.9999999886        0.0000000114
  Core density on regular grids:              512.9999999831       -0.0000000169
  Total charge density on r-space grids:        0.9999999946
  Total charge density g-space grids:           0.9999999946

  Overlap energy of the core charge distribution:               0.00000223137860
  Self energy of the core charge distribution:              -2839.62839375007934
  Core Hamiltonian energy:                                    829.67589779283708
  Hartree energy:                                            1178.96229693630175
  Exchange-correlation energy:                               -271.84204423016183
  Dispersion energy:                                           -0.24814595854409

  Total energy:                                             -1103.08038697826782

  outer SCF iter =    1 RMS gradient =   0.59E-06 energy =      -1103.0803869783
  outer SCF loop converged in   1 iterations or   10 steps


 ENERGY| Total FORCE_EVAL ( QS ) energy [a.u.]:            -1103.080386985504447

 MD| ***************************************************************************
 MD| Step number                                                               1
 MD| Time [fs]                                                          0.500000
 MD| Conserved quantity [hartree]                            -0.110279733487E+04
 MD| ---------------------------------------------------------------------------
 MD|                                          Instantaneous             Averages
 MD| CPU time per MD step [s]                   1581.840448          1581.840448
 MD| Energy drift per atom [K]          -0.241995496936E+00   0.000000000000E+00
 MD| Potential energy [hartree]         -0.110308038699E+04  -0.110308038699E+04
 MD| Kinetic energy [hartree]            0.281275180784E+00   0.281275180784E+00
 MD| Temperature [K]                             306.803355           306.803355
 MD| ***************************************************************************

 Number of electrons:                                                        512
 Number of occupied orbitals:                                                256
 Number of molecular orbitals:                                               256

 Number of orbital functions:                                               1477
 Number of independent orbital functions:                                   1477

 Extrapolation method: ASPC


 SCF WAVEFUNCTION OPTIMIZATION

  ----------------------------------- OT ---------------------------------------
  Minimizer      : DIIS                : direct inversion
                                         in the iterative subspace
                                         using   7 DIIS vectors
                                         safer DIIS on
  Preconditioner : FULL_SINGLE_INVERSE : inversion of 
                                         H + eS - 2*(Sc)(c^T*H*c+const)(Sc)^T
  Precond_solver : DEFAULT
  stepsize       :    0.08000000                  energy_gap     :    0.08000000
  eps_taylor     :   0.10000E-15                  max_taylor     :             4
  ----------------------------------- OT ---------------------------------------

  Step     Update method      Time    Convergence         Total energy    Change
  ------------------------------------------------------------------------------
     1 OT DIIS     0.80E-01   27.6     0.00018014     -1103.0918814777 -1.10E+03
     2 OT DIIS     0.80E-01   11.2     0.00009909     -1103.0925951126 -7.14E-04
     3 OT DIIS     0.80E-01   11.2     0.00005827     -1103.0928624140 -2.67E-04
     4 OT DIIS     0.80E-01   11.3     0.00002385     -1103.0929390266 -7.66E-05
     5 OT DIIS     0.80E-01   11.2     0.00001593     -1103.0929509793 -1.20E-05
     6 OT DIIS     0.80E-01   11.5     0.00001227     -1103.0929540013 -3.02E-06
     7 OT DIIS     0.80E-01   10.9     0.00000265     -1103.0929555136 -1.51E-06
     8 OT DIIS     0.80E-01   11.0     0.00000135     -1103.0929556823 -1.69E-07
     9 OT DIIS     0.80E-01   10.9     0.00000079     -1103.0929557097 -2.74E-08

  *** SCF run converged in     9 steps ***


  Electronic density on regular grids:       -511.9999999883        0.0000000117
  Core density on regular grids:              512.9999999831       -0.0000000169
  Total charge density on r-space grids:        0.9999999948
  Total charge density g-space grids:           0.9999999948

  Overlap energy of the core charge distribution:               0.00000199935294
  Self energy of the core charge distribution:              -2839.62839375007934
  Core Hamiltonian energy:                                    829.15291856032536
  Hartree energy:                                            1179.32411866877487
  Exchange-correlation energy:                               -271.69352611814583
  Dispersion energy:                                           -0.24807506993062

  Total energy:                                             -1103.09295570970244

  outer SCF iter =    1 RMS gradient =   0.79E-06 energy =      -1103.0929557097
  outer SCF loop converged in   1 iterations or    9 steps


 ENERGY| Total FORCE_EVAL ( QS ) energy [a.u.]:            -1103.092955722682518

 MD| ***************************************************************************
 MD| Step number                                                               2
 MD| Time [fs]                                                          1.000000
 MD| Conserved quantity [hartree]                            -0.110279760746E+04
 MD| ---------------------------------------------------------------------------
 MD|                                          Instantaneous             Averages
 MD| CPU time per MD step [s]                    136.177679           859.009063
 MD| Energy drift per atom [K]          -0.687988479521E+00  -0.343994239761E+00
 MD| Potential energy [hartree]         -0.110309295572E+04  -0.110308667135E+04
 MD| Kinetic energy [hartree]            0.275101534065E+00   0.278188357425E+00
 MD| Temperature [K]                             300.069396           303.436375
 MD| ***************************************************************************

 Number of electrons:                                                        512
 Number of occupied orbitals:                                                256
 Number of molecular orbitals:                                               256

 Number of orbital functions:                                               1477
 Number of independent orbital functions:                                   1477

 Extrapolation method: ASPC


 SCF WAVEFUNCTION OPTIMIZATION

  ----------------------------------- OT ---------------------------------------
  Minimizer      : DIIS                : direct inversion
                                         in the iterative subspace
                                         using   7 DIIS vectors
                                         safer DIIS on
  Preconditioner : FULL_SINGLE_INVERSE : inversion of 
                                         H + eS - 2*(Sc)(c^T*H*c+const)(Sc)^T
  Precond_solver : DEFAULT
  stepsize       :    0.08000000                  energy_gap     :    0.08000000
  eps_taylor     :   0.10000E-15                  max_taylor     :             4
  ----------------------------------- OT ---------------------------------------

  Step     Update method      Time    Convergence         Total energy    Change
  ------------------------------------------------------------------------------
     1 OT DIIS     0.80E-01   27.1     0.00019261     -1103.1077543533 -1.10E+03
     2 OT DIIS     0.80E-01   11.0     0.00010636     -1103.1085817973 -8.27E-04
     3 OT DIIS     0.80E-01   10.8     0.00006148     -1103.1089127613 -3.31E-04
     4 OT DIIS     0.80E-01   10.8     0.00004750     -1103.1089829098 -7.01E-05
     5 OT DIIS     0.80E-01   11.2     0.00001873     -1103.1090030683 -2.02E-05
     6 OT DIIS     0.80E-01   10.8     0.00000865     -1103.1090097856 -6.72E-06
     7 OT DIIS     0.80E-01   11.1     0.00000281     -1103.1090111471 -1.36E-06
     8 OT DIIS     0.80E-01   10.8     0.00000135     -1103.1090113385 -1.91E-07
     9 OT DIIS     0.80E-01   11.6     0.00000078     -1103.1090113703 -3.18E-08

  *** SCF run converged in     9 steps ***


  Electronic density on regular grids:       -511.9999999881        0.0000000119
  Core density on regular grids:              512.9999999831       -0.0000000169
  Total charge density on r-space grids:        0.9999999950
  Total charge density g-space grids:           0.9999999950

  Overlap energy of the core charge distribution:               0.00000168806621
  Self energy of the core charge distribution:              -2839.62839375007934
  Core Hamiltonian energy:                                    828.46595277171627
  Hartree energy:                                            1179.79888086416031
  Exchange-correlation energy:                               -271.49747460101503
  Dispersion energy:                                           -0.24797834314640

  Total energy:                                             -1103.10901137029782

  outer SCF iter =    1 RMS gradient =   0.78E-06 energy =      -1103.1090113703
  outer SCF loop converged in   1 iterations or    9 steps


 ENERGY| Total FORCE_EVAL ( QS ) energy [a.u.]:            -1103.109011383947745

 MD| ***************************************************************************
 MD| Step number                                                               3
 MD| Time [fs]                                                          1.500000
 MD| Conserved quantity [hartree]                            -0.110279796583E+04
 MD| ---------------------------------------------------------------------------
 MD|                                          Instantaneous             Averages
 MD| CPU time per MD step [s]                    136.006926           618.008351
 MD| Energy drift per atom [K]          -0.127433207942E+01  -0.654106852979E+00
 MD| Potential energy [hartree]         -0.110310901138E+04  -0.110309411803E+04
 MD| Kinetic energy [hartree]            0.286291062353E+00   0.280889259068E+00
 MD| Temperature [K]                             312.274471           306.382407
 MD| ***************************************************************************

 Number of electrons:                                                        512
 Number of occupied orbitals:                                                256
 Number of molecular orbitals:                                               256

 Number of orbital functions:                                               1477
 Number of independent orbital functions:                                   1477

 Extrapolation method: ASPC


 SCF WAVEFUNCTION OPTIMIZATION

  ----------------------------------- OT ---------------------------------------
  Minimizer      : DIIS                : direct inversion
                                         in the iterative subspace
                                         using   7 DIIS vectors
                                         safer DIIS on
  Preconditioner : FULL_SINGLE_INVERSE : inversion of 
                                         H + eS - 2*(Sc)(c^T*H*c+const)(Sc)^T
  Precond_solver : DEFAULT
  stepsize       :    0.08000000                  energy_gap     :    0.08000000
  eps_taylor     :   0.10000E-15                  max_taylor     :             4
  ----------------------------------- OT ---------------------------------------

  Step     Update method      Time    Convergence         Total energy    Change
  ------------------------------------------------------------------------------
     1 OT DIIS     0.80E-01   27.4     0.00021806     -1103.1206321118 -1.10E+03
     2 OT DIIS     0.80E-01   11.1     0.00012133     -1103.1216819498 -1.05E-03
     3 OT DIIS     0.80E-01   10.9     0.00008401     -1103.1220786952 -3.97E-04
     4 OT DIIS     0.80E-01   11.0     0.00006158     -1103.1221829806 -1.04E-04
     5 OT DIIS     0.80E-01   11.3     0.00001901     -1103.1222197713 -3.68E-05
     6 OT DIIS     0.80E-01   11.1     0.00000898     -1103.1222283110 -8.54E-06
     7 OT DIIS     0.80E-01   11.0     0.00000341     -1103.1222299471 -1.64E-06
     8 OT DIIS     0.80E-01   11.3     0.00000154     -1103.1222302106 -2.63E-07
     9 OT DIIS     0.80E-01   11.1     0.00000085     -1103.1222302549 -4.43E-08

  *** SCF run converged in     9 steps ***


  Electronic density on regular grids:       -511.9999999880        0.0000000120
  Core density on regular grids:              512.9999999831       -0.0000000169
  Total charge density on r-space grids:        0.9999999951
  Total charge density g-space grids:           0.9999999951

  Overlap energy of the core charge distribution:               0.00000143090389
  Self energy of the core charge distribution:              -2839.62839375007934
  Core Hamiltonian energy:                                    827.74359998204727
  Hartree energy:                                            1180.30057392473145
  Exchange-correlation energy:                               -271.29012178857243
  Dispersion energy:                                           -0.24789005392111

  Total energy:                                             -1103.12223025489016

  outer SCF iter =    1 RMS gradient =   0.85E-06 energy =      -1103.1222302549
  outer SCF loop converged in   1 iterations or    9 steps


 ENERGY| Total FORCE_EVAL ( QS ) energy [a.u.]:            -1103.122230271148055

 MD| ***************************************************************************
 MD| Step number                                                               4
 MD| Time [fs]                                                          2.000000
 MD| Conserved quantity [hartree]                            -0.110279819754E+04
 MD| ---------------------------------------------------------------------------
 MD|                                          Instantaneous             Averages
 MD| CPU time per MD step [s]                    139.091907           498.279240
 MD| Energy drift per atom [K]          -0.165344053052E+01  -0.903940272364E+00
 MD| Potential energy [hartree]         -0.110312223027E+04  -0.110310114609E+04
 MD| Kinetic energy [hartree]            0.288037843853E+00   0.282676405264E+00
 MD| Temperature [K]                             314.179788           308.331752
 MD| ***************************************************************************

 Number of electrons:                                                        512
 Number of occupied orbitals:                                                256
 Number of molecular orbitals:                                               256

 Number of orbital functions:                                               1477
 Number of independent orbital functions:                                   1477

 Extrapolation method: ASPC


 SCF WAVEFUNCTION OPTIMIZATION

  ----------------------------------- OT ---------------------------------------
  Minimizer      : DIIS                : direct inversion
                                         in the iterative subspace
                                         using   7 DIIS vectors
                                         safer DIIS on
  Preconditioner : FULL_SINGLE_INVERSE : inversion of 
                                         H + eS - 2*(Sc)(c^T*H*c+const)(Sc)^T
  Precond_solver : DEFAULT
  stepsize       :    0.08000000                  energy_gap     :    0.08000000
  eps_taylor     :   0.10000E-15                  max_taylor     :             4
  ----------------------------------- OT ---------------------------------------

  Step     Update method      Time    Convergence         Total energy    Change
  ------------------------------------------------------------------------------
     1 OT DIIS     0.80E-01   26.9     0.00026209     -1103.1297611374 -1.10E+03
     2 OT DIIS     0.80E-01   11.0     0.00014399     -1103.1312903422 -1.53E-03
     3 OT DIIS     0.80E-01   10.9     0.00007204     -1103.1319083701 -6.18E-04
     4 OT DIIS     0.80E-01   11.3     0.00003892     -1103.1320489777 -1.41E-04
     5 OT DIIS     0.80E-01   11.0     0.00002712     -1103.1320674799 -1.85E-05
     6 OT DIIS     0.80E-01   11.2     0.00001055     -1103.1320782059 -1.07E-05
     7 OT DIIS     0.80E-01   11.4     0.00000368     -1103.1320799491 -1.74E-06
     8 OT DIIS     0.80E-01   11.0     0.00000154     -1103.1320802746 -3.26E-07
     9 OT DIIS     0.80E-01   11.1     0.00000092     -1103.1320803234 -4.88E-08

  *** SCF run converged in     9 steps ***


  Electronic density on regular grids:       -511.9999999879        0.0000000121
  Core density on regular grids:              512.9999999831       -0.0000000169
  Total charge density on r-space grids:        0.9999999952
  Total charge density g-space grids:           0.9999999952

  Overlap energy of the core charge distribution:               0.00000123232649
  Self energy of the core charge distribution:              -2839.62839375007934
  Core Hamiltonian energy:                                    827.03224968453833
  Hartree energy:                                            1180.79585436595198
  Exchange-correlation energy:                               -271.08397944189164
  Dispersion energy:                                           -0.24781241426499

  Total energy:                                             -1103.13208032341890

  outer SCF iter =    1 RMS gradient =   0.92E-06 energy =      -1103.1320803234
  outer SCF loop converged in   1 iterations or    9 steps


 ENERGY| Total FORCE_EVAL ( QS ) energy [a.u.]:            -1103.132080340900302

 MD| ***************************************************************************
 MD| Step number                                                               5
 MD| Time [fs]                                                          2.500000
 MD| Conserved quantity [hartree]                            -0.110279829438E+04
 MD| ---------------------------------------------------------------------------
 MD|                                          Instantaneous             Averages
 MD| CPU time per MD step [s]                    139.787992           426.580990
 MD| Energy drift per atom [K]          -0.181189349902E+01  -0.108553091770E+01
 MD| Potential energy [hartree]         -0.110313208034E+04  -0.110310733294E+04
 MD| Kinetic energy [hartree]            0.303412634857E+00   0.286823651183E+00
 MD| Temperature [K]                             330.949976           312.855397
 MD| ***************************************************************************

 Number of electrons:                                                        512
 Number of occupied orbitals:                                                256
 Number of molecular orbitals:                                               256

 Number of orbital functions:                                               1477
 Number of independent orbital functions:                                   1477

 Extrapolation method: ASPC


 SCF WAVEFUNCTION OPTIMIZATION

  ----------------------------------- OT ---------------------------------------
  Minimizer      : DIIS                : direct inversion
                                         in the iterative subspace
                                         using   7 DIIS vectors
                                         safer DIIS on
  Preconditioner : FULL_SINGLE_INVERSE : inversion of 
                                         H + eS - 2*(Sc)(c^T*H*c+const)(Sc)^T
  Precond_solver : DEFAULT
  stepsize       :    0.08000000                  energy_gap     :    0.08000000
  eps_taylor     :   0.10000E-15                  max_taylor     :             4
  ----------------------------------- OT ---------------------------------------

  Step     Update method      Time    Convergence         Total energy    Change
  ------------------------------------------------------------------------------
     1 OT DIIS     0.80E-01   28.6     0.00021834     -1103.1368278926 -1.10E+03
     2 OT DIIS     0.80E-01   11.6     0.00012135     -1103.1378973546 -1.07E-03
     3 OT DIIS     0.80E-01   11.5     0.00006165     -1103.1383454052 -4.48E-04
     4 OT DIIS     0.80E-01   11.1     0.00003833     -1103.1384418908 -9.65E-05
     5 OT DIIS     0.80E-01   11.2     0.00002101     -1103.1384579822 -1.61E-05
     6 OT DIIS     0.80E-01   11.4     0.00000792     -1103.1384659602 -7.98E-06
     7 OT DIIS     0.80E-01   11.2     0.00000297     -1103.1384670542 -1.09E-06
     8 OT DIIS     0.80E-01   11.3     0.00000122     -1103.1384672707 -2.16E-07
     9 OT DIIS     0.80E-01   11.1     0.00000071     -1103.1384673032 -3.25E-08

  *** SCF run converged in     9 steps ***


  Electronic density on regular grids:       -511.9999999878        0.0000000122
  Core density on regular grids:              512.9999999831       -0.0000000169
  Total charge density on r-space grids:        0.9999999953
  Total charge density g-space grids:           0.9999999953

  Overlap energy of the core charge distribution:               0.00000111102135
  Self energy of the core charge distribution:              -2839.62839375007934
  Core Hamiltonian energy:                                    826.40016380302870
  Hartree energy:                                            1181.23774686829120
  Exchange-correlation energy:                               -270.90022470205804
  Dispersion energy:                                           -0.24776063337292

  Total energy:                                             -1103.13846730316914

  outer SCF iter =    1 RMS gradient =   0.71E-06 energy =      -1103.1384673032
  outer SCF loop converged in   1 iterations or    9 steps


 ENERGY| Total FORCE_EVAL ( QS ) energy [a.u.]:            -1103.138467313691535

 MD| ***************************************************************************
 MD| Step number                                                               6
 MD| Time [fs]                                                          3.000000
 MD| Conserved quantity [hartree]                            -0.110279826222E+04
 MD| ---------------------------------------------------------------------------
 MD|                                          Instantaneous             Averages
 MD| CPU time per MD step [s]                    143.314910           379.369977
 MD| Energy drift per atom [K]          -0.175926717115E+01  -0.119782029327E+01
 MD| Potential energy [hartree]         -0.110313846731E+04  -0.110311252200E+04
 MD| Kinetic energy [hartree]            0.326705706793E+00   0.293470660451E+00
 MD| Temperature [K]                             356.357097           320.105680
 MD| ***************************************************************************

 Number of electrons:                                                        512
 Number of occupied orbitals:                                                256
 Number of molecular orbitals:                                               256

 Number of orbital functions:                                               1477
 Number of independent orbital functions:                                   1477

 Extrapolation method: ASPC


 SCF WAVEFUNCTION OPTIMIZATION

  ----------------------------------- OT ---------------------------------------
  Minimizer      : DIIS                : direct inversion
                                         in the iterative subspace
                                         using   7 DIIS vectors
                                         safer DIIS on
  Preconditioner : FULL_SINGLE_INVERSE : inversion of 
                                         H + eS - 2*(Sc)(c^T*H*c+const)(Sc)^T
  Precond_solver : DEFAULT
  stepsize       :    0.08000000                  energy_gap     :    0.08000000
  eps_taylor     :   0.10000E-15                  max_taylor     :             4
  ----------------------------------- OT ---------------------------------------

  Step     Update method      Time    Convergence         Total energy    Change
  ------------------------------------------------------------------------------
     1 OT DIIS     0.80E-01   27.0     0.00022217     -1103.1383814512 -1.10E+03
     2 OT DIIS     0.80E-01   11.2     0.00012417     -1103.1394680592 -1.09E-03
     3 OT DIIS     0.80E-01   10.9     0.00009022     -1103.1398733214 -4.05E-04
     4 OT DIIS     0.80E-01   11.4     0.00005680     -1103.1399938385 -1.21E-04
     5 OT DIIS     0.80E-01   11.4     0.00001671     -1103.1400341494 -4.03E-05
     6 OT DIIS     0.80E-01   11.3     0.00000717     -1103.1400424285 -8.28E-06
     7 OT DIIS     0.80E-01   11.4     0.00000304     -1103.1400435777 -1.15E-06
     8 OT DIIS     0.80E-01   11.3     0.00000122     -1103.1400437881 -2.10E-07
     9 OT DIIS     0.80E-01   11.0     0.00000065     -1103.1400438246 -3.66E-08

  *** SCF run converged in     9 steps ***


  Electronic density on regular grids:       -511.9999999876        0.0000000124
  Core density on regular grids:              512.9999999831       -0.0000000169
  Total charge density on r-space grids:        0.9999999955
  Total charge density g-space grids:           0.9999999955

  Overlap energy of the core charge distribution:               0.00000104459415
  Self energy of the core charge distribution:              -2839.62839375007934
  Core Hamiltonian energy:                                    825.88553212114834
  Hartree energy:                                            1181.60051555969767
  Exchange-correlation energy:                               -270.74998921132550
  Dispersion energy:                                           -0.24770958867206

  Total energy:                                             -1103.14004382463668

  outer SCF iter =    1 RMS gradient =   0.65E-06 energy =      -1103.1400438246
  outer SCF loop converged in   1 iterations or    9 steps


 ENERGY| Total FORCE_EVAL ( QS ) energy [a.u.]:            -1103.140043834287326

 MD| ***************************************************************************
 MD| Step number                                                               7
 MD| Time [fs]                                                          3.500000
 MD| Conserved quantity [hartree]                            -0.110279811472E+04
 MD| ---------------------------------------------------------------------------
 MD|                                          Instantaneous             Averages
 MD| CPU time per MD step [s]                    141.130981           345.335835
 MD| Energy drift per atom [K]          -0.151793785437E+01  -0.124355137343E+01
 MD| Potential energy [hartree]         -0.110314004383E+04  -0.110311645369E+04
 MD| Kinetic energy [hartree]            0.325239196027E+00   0.298009022676E+00
 MD| Temperature [K]                             354.757487           325.055939
 MD| ***************************************************************************

 Number of electrons:                                                        512
 Number of occupied orbitals:                                                256
 Number of molecular orbitals:                                               256

 Number of orbital functions:                                               1477
 Number of independent orbital functions:                                   1477

 Extrapolation method: ASPC


 SCF WAVEFUNCTION OPTIMIZATION

  ----------------------------------- OT ---------------------------------------
  Minimizer      : DIIS                : direct inversion
                                         in the iterative subspace
                                         using   7 DIIS vectors
                                         safer DIIS on
  Preconditioner : FULL_SINGLE_INVERSE : inversion of 
                                         H + eS - 2*(Sc)(c^T*H*c+const)(Sc)^T
  Precond_solver : DEFAULT
  stepsize       :    0.08000000                  energy_gap     :    0.08000000
  eps_taylor     :   0.10000E-15                  max_taylor     :             4
  ----------------------------------- OT ---------------------------------------

  Step     Update method      Time    Convergence         Total energy    Change
  ------------------------------------------------------------------------------
     1 OT DIIS     0.80E-01   27.6     0.00022551     -1103.1394035155 -1.10E+03
     2 OT DIIS     0.80E-01   11.0     0.00012537     -1103.1405383343 -1.13E-03
     3 OT DIIS     0.80E-01   11.2     0.00007478     -1103.1409947235 -4.56E-04
     4 OT DIIS     0.80E-01   11.0     0.00005247     -1103.1410984192 -1.04E-04
     5 OT DIIS     0.80E-01   11.5     0.00001826     -1103.1411279347 -2.95E-05
     6 OT DIIS     0.80E-01   11.2     0.00000733     -1103.1411367717 -8.84E-06
     7 OT DIIS     0.80E-01   11.0     0.00000305     -1103.1411378991 -1.13E-06
     8 OT DIIS     0.80E-01   11.6     0.00000123     -1103.1411381220 -2.23E-07
     9 OT DIIS     0.80E-01   11.3     0.00000065     -1103.1411381589 -3.69E-08

  *** SCF run converged in     9 steps ***


  Electronic density on regular grids:       -511.9999999875        0.0000000125
  Core density on regular grids:              512.9999999831       -0.0000000169
  Total charge density on r-space grids:        0.9999999956
  Total charge density g-space grids:           0.9999999956

  Overlap energy of the core charge distribution:               0.00000097130597
  Self energy of the core charge distribution:              -2839.62839375007934
  Core Hamiltonian energy:                                    825.48743115635307
  Hartree energy:                                            1181.88106949847474
  Exchange-correlation energy:                               -270.63358409900252
  Dispersion energy:                                           -0.24766193592010

  Total energy:                                             -1103.14113815886844

  outer SCF iter =    1 RMS gradient =   0.65E-06 energy =      -1103.1411381589
  outer SCF loop converged in   1 iterations or    9 steps


 ENERGY| Total FORCE_EVAL ( QS ) energy [a.u.]:            -1103.141138168554562

 MD| ***************************************************************************
 MD| Step number                                                               8
 MD| Time [fs]                                                          4.000000
 MD| Conserved quantity [hartree]                            -0.110279802401E+04
 MD| ---------------------------------------------------------------------------
 MD|                                          Instantaneous             Averages
 MD| CPU time per MD step [s]                    141.772929           319.890471
 MD| Energy drift per atom [K]          -0.136952152662E+01  -0.125929764258E+01
 MD| Potential energy [hartree]         -0.110314113817E+04  -0.110311953925E+04
 MD| Kinetic energy [hartree]            0.326565033284E+00   0.301578524002E+00
 MD| Temperature [K]                             356.203656           328.949403
 MD| ***************************************************************************

 Number of electrons:                                                        512
 Number of occupied orbitals:                                                256
 Number of molecular orbitals:                                               256

 Number of orbital functions:                                               1477
 Number of independent orbital functions:                                   1477

 Extrapolation method: ASPC


 SCF WAVEFUNCTION OPTIMIZATION

  ----------------------------------- OT ---------------------------------------
  Minimizer      : DIIS                : direct inversion
                                         in the iterative subspace
                                         using   7 DIIS vectors
                                         safer DIIS on
  Preconditioner : FULL_SINGLE_INVERSE : inversion of 
                                         H + eS - 2*(Sc)(c^T*H*c+const)(Sc)^T
  Precond_solver : DEFAULT
  stepsize       :    0.08000000                  energy_gap     :    0.08000000
  eps_taylor     :   0.10000E-15                  max_taylor     :             4
  ----------------------------------- OT ---------------------------------------

  Step     Update method      Time    Convergence         Total energy    Change
  ------------------------------------------------------------------------------
     1 OT DIIS     0.80E-01   26.9     0.00022424     -1103.1367769976 -1.10E+03
     2 OT DIIS     0.80E-01   11.0     0.00012592     -1103.1379125192 -1.14E-03
     3 OT DIIS     0.80E-01   11.1     0.00005890     -1103.1384097767 -4.97E-04
     4 OT DIIS     0.80E-01   11.1     0.00002397     -1103.1385180297 -1.08E-04
     5 OT DIIS     0.80E-01   11.4     0.00001747     -1103.1385307510 -1.27E-05
     6 OT DIIS     0.80E-01   11.2     0.00000841     -1103.1385353740 -4.62E-06
     7 OT DIIS     0.80E-01   10.9     0.00000297     -1103.1385362377 -8.64E-07
     8 OT DIIS     0.80E-01   11.1     0.00000106     -1103.1385364426 -2.05E-07
     9 OT DIIS     0.80E-01   11.0     0.00000054     -1103.1385364722 -2.96E-08

  *** SCF run converged in     9 steps ***


  Electronic density on regular grids:       -511.9999999875        0.0000000125
  Core density on regular grids:              512.9999999831       -0.0000000169
  Total charge density on r-space grids:        0.9999999956
  Total charge density g-space grids:           0.9999999956

  Overlap energy of the core charge distribution:               0.00000091647273
  Self energy of the core charge distribution:              -2839.62839375007934
  Core Hamiltonian energy:                                    825.24603602892967
  Hartree energy:                                            1182.05339943173431
  Exchange-correlation energy:                               -270.56192624095502
  Dispersion energy:                                           -0.24765285833029

  Total energy:                                             -1103.13853647222777

  outer SCF iter =    1 RMS gradient =   0.54E-06 energy =      -1103.1385364722
  outer SCF loop converged in   1 iterations or    9 steps


 ENERGY| Total FORCE_EVAL ( QS ) energy [a.u.]:            -1103.138536479162440

 MD| ***************************************************************************
 MD| Step number                                                               9
 MD| Time [fs]                                                          4.500000
 MD| Conserved quantity [hartree]                            -0.110279796368E+04
 MD| ---------------------------------------------------------------------------
 MD|                                          Instantaneous             Averages
 MD| CPU time per MD step [s]                    139.915974           299.893305
 MD| Energy drift per atom [K]          -0.127081168992E+01  -0.126057698117E+01
 MD| Potential energy [hartree]         -0.110313853648E+04  -0.110312165006E+04
 MD| Kinetic energy [hartree]            0.316209263590E+00   0.303204161734E+00
 MD| Temperature [K]                             344.908010           330.722582
 MD| ***************************************************************************

 Number of electrons:                                                        512
 Number of occupied orbitals:                                                256
 Number of molecular orbitals:                                               256

 Number of orbital functions:                                               1477
 Number of independent orbital functions:                                   1477

 Extrapolation method: ASPC


 SCF WAVEFUNCTION OPTIMIZATION

  ----------------------------------- OT ---------------------------------------
  Minimizer      : DIIS                : direct inversion
                                         in the iterative subspace
                                         using   7 DIIS vectors
                                         safer DIIS on
  Preconditioner : FULL_SINGLE_INVERSE : inversion of 
                                         H + eS - 2*(Sc)(c^T*H*c+const)(Sc)^T
  Precond_solver : DEFAULT
  stepsize       :    0.08000000                  energy_gap     :    0.08000000
  eps_taylor     :   0.10000E-15                  max_taylor     :             4
  ----------------------------------- OT ---------------------------------------

  Step     Update method      Time    Convergence         Total energy    Change
  ------------------------------------------------------------------------------
     1 OT DIIS     0.80E-01   27.7     0.00022840     -1103.1329626153 -1.10E+03
     2 OT DIIS     0.80E-01   10.9     0.00012795     -1103.1341468026 -1.18E-03
     3 OT DIIS     0.80E-01   11.2     0.00005769     -1103.1346711385 -5.24E-04
     4 OT DIIS     0.80E-01   11.2     0.00002355     -1103.1347708614 -9.97E-05
     5 OT DIIS     0.80E-01   10.7     0.00001325     -1103.1347858499 -1.50E-05
     6 OT DIIS     0.80E-01   10.9     0.00000610     -1103.1347895665 -3.72E-06
     7 OT DIIS     0.80E-01   11.0     0.00000382     -1103.1347900063 -4.40E-07
     8 OT DIIS     0.80E-01   11.4     0.00000113     -1103.1347902057 -1.99E-07
     9 OT DIIS     0.80E-01   11.3     0.00000052     -1103.1347902383 -3.26E-08

  *** SCF run converged in     9 steps ***


  Electronic density on regular grids:       -511.9999999876        0.0000000124
  Core density on regular grids:              512.9999999831       -0.0000000169
  Total charge density on r-space grids:        0.9999999956
  Total charge density g-space grids:           0.9999999956

  Overlap energy of the core charge distribution:               0.00000090399493
  Self energy of the core charge distribution:              -2839.62839375007934
  Core Hamiltonian energy:                                    825.13546375558121
  Hartree energy:                                            1182.13427548648269
  Exchange-correlation energy:                               -270.52845193028236
  Dispersion energy:                                           -0.24768470403319

  Total energy:                                             -1103.13479023833611

  outer SCF iter =    1 RMS gradient =   0.52E-06 energy =      -1103.1347902383
  outer SCF loop converged in   1 iterations or    9 steps

  
  Eigenvalues of the occupied subspace spin            1
 ---------------------------------------------
      -0.94994672     -0.84059290     -0.81688893     -0.81069606
      -0.80925877     -0.80707066     -0.80491960     -0.79862516
      -0.79776262     -0.79624200     -0.79439000     -0.79219756
      -0.79068529     -0.78957395     -0.78921277     -0.78800042
      -0.78592649     -0.78441900     -0.78368336     -0.78263098
      -0.78175968     -0.78103837     -0.77982124     -0.77880774
      -0.77713781     -0.77521075     -0.77485318     -0.77388855
      -0.77309123     -0.77234565     -0.77179650     -0.77068541
      -0.76991167     -0.76943148     -0.76874434     -0.76828157
      -0.76655673     -0.76628814     -0.76600106     -0.76442512
      -0.76210693     -0.76140218     -0.76086557     -0.75964637
      -0.75898791     -0.75816484     -0.75781606     -0.75725116
      -0.75658036     -0.75589326     -0.75506664     -0.75423995
      -0.75418362     -0.75366362     -0.75253482     -0.75043721
      -0.74920078     -0.74665755     -0.74638248     -0.74538903
      -0.74006630     -0.73671157     -0.73418916     -0.72862006
      -0.48997490     -0.44997899     -0.39112739     -0.37244283
      -0.37158804     -0.36463480     -0.36323185     -0.36182890
      -0.35959358     -0.35423754     -0.35197045     -0.34802749
      -0.34643500     -0.34637095     -0.34561651     -0.34551542
      -0.34387868     -0.34229966     -0.34123449     -0.34105862
      -0.34041824     -0.33876867     -0.33800068     -0.33725131
      -0.33673012     -0.33599875     -0.33547767     -0.33520854
      -0.33304874     -0.33107467     -0.32987996     -0.32917196
      -0.32875011     -0.32839671     -0.32801878     -0.32601849
      -0.32501359     -0.32451319     -0.32329151     -0.32286034
      -0.32186988     -0.32065407     -0.32057631     -0.31969368
      -0.31954009     -0.31770212     -0.31694127     -0.31567489
      -0.31526934     -0.31382626     -0.31339844     -0.31266458
      -0.31178286     -0.30911454     -0.30832470     -0.30710194
      -0.30612550     -0.30413571     -0.30286371     -0.30259094
      -0.30055889     -0.29909447     -0.29796405     -0.29792276
      -0.29565583     -0.28513530     -0.26996078     -0.26643431
      -0.26363595     -0.26131004     -0.25865299     -0.25434519
      -0.25049211     -0.24888189     -0.24785436     -0.24439547
      -0.24154478     -0.23964049     -0.23836431     -0.23590688
      -0.23446055     -0.23330345     -0.23205688     -0.23117746
      -0.22968595     -0.22717690     -0.22583102     -0.22447962
      -0.22137189     -0.21919592     -0.21726688     -0.21611612
      -0.21452388     -0.21305522     -0.21214852     -0.21099377
      -0.20932303     -0.20832598     -0.20718919     -0.20569654
      -0.20546615     -0.20327100     -0.20200070     -0.20012529
      -0.19967745     -0.19778045     -0.19550470     -0.19360837
      -0.19248184     -0.19040032     -0.18868506     -0.18837597
      -0.18576685     -0.18557787     -0.18486449     -0.18306716
      -0.18170222     -0.18064266     -0.17861454     -0.17490097
      -0.17384573     -0.17318838     -0.17166751     -0.17009786
      -0.17000014     -0.16882143     -0.16558256     -0.16500078
      -0.16214817     -0.16197086     -0.15392583     -0.15171177
      -0.14961725     -0.14686064     -0.14546124     -0.14478934
      -0.14339327     -0.14307175     -0.14250533     -0.14054943
      -0.13860738     -0.13824286     -0.13696116     -0.13563761
      -0.13430328     -0.13403857     -0.13357425     -0.13248350
      -0.13167402     -0.13117463     -0.13063267     -0.12962193
      -0.12918519     -0.12862155     -0.12853982     -0.12817798
      -0.12686472     -0.12660902     -0.12606083     -0.12576523
      -0.12499552     -0.12441639     -0.12375109     -0.12301119
      -0.12289975     -0.12169888     -0.12064135     -0.12049713
      -0.12026722     -0.11855601     -0.11808742     -0.11713558
      -0.11680357     -0.11630695     -0.11571267     -0.11477863
      -0.11412111     -0.11358596     -0.11326370     -0.11282589
      -0.11227702     -0.11155038     -0.11079010     -0.11061004
      -0.10983939     -0.10483383     -0.10414683     -0.10318016
      -0.10146010     -0.09561055     -0.09061662     -0.08859939
 Fermi Energy [eV] :   -2.410912
  
  Lowest Eigenvalues of the unoccupied subspace spin            1
 -----------------------------------------------------
  Reached convergence in           75  iterations 
       0.01610893      0.07667180      0.08844869      0.11473777
  
 HOMO - LUMO gap [eV] :    2.849258

 ENERGY| Total FORCE_EVAL ( QS ) energy [a.u.]:            -1103.134790245072054

 MD| ***************************************************************************
 MD| Step number                                                              10
 MD| Time [fs]                                                          5.000000
 MD| Conserved quantity [hartree]                            -0.110279788538E+04
 MD| ---------------------------------------------------------------------------
 MD|                                          Instantaneous             Averages
 MD| CPU time per MD step [s]                    748.943737           344.798348
 MD| Energy drift per atom [K]          -0.114270263088E+01  -0.124878954614E+01
 MD| Potential energy [hartree]         -0.110313479025E+04  -0.110312296407E+04
 MD| Kinetic energy [hartree]            0.309604219001E+00   0.303844167461E+00
 MD| Temperature [K]                             337.703500           331.420674
 MD| ***************************************************************************

 Number of electrons:                                                        512
 Number of occupied orbitals:                                                256
 Number of molecular orbitals:                                               256

 Number of orbital functions:                                               1477
 Number of independent orbital functions:                                   1477

 Extrapolation method: ASPC


 SCF WAVEFUNCTION OPTIMIZATION

  ----------------------------------- OT ---------------------------------------
  Minimizer      : DIIS                : direct inversion
                                         in the iterative subspace
                                         using   7 DIIS vectors
                                         safer DIIS on
  Preconditioner : FULL_SINGLE_INVERSE : inversion of 
                                         H + eS - 2*(Sc)(c^T*H*c+const)(Sc)^T
  Precond_solver : DEFAULT
  stepsize       :    0.08000000                  energy_gap     :    0.08000000
  eps_taylor     :   0.10000E-15                  max_taylor     :             4
  ----------------------------------- OT ---------------------------------------

  Step     Update method      Time    Convergence         Total energy    Change
  ------------------------------------------------------------------------------
     1 OT DIIS     0.80E-01   28.0     0.00023424     -1103.1349297787 -1.10E+03
     2 OT DIIS     0.80E-01   11.0     0.00012996     -1103.1361603239 -1.23E-03
     3 OT DIIS     0.80E-01   11.2     0.00006443     -1103.1366730694 -5.13E-04
     4 OT DIIS     0.80E-01   10.9     0.00002638     -1103.1367876835 -1.15E-04
     5 OT DIIS     0.80E-01   11.4     0.00001409     -1103.1368052887 -1.76E-05
     6 OT DIIS     0.80E-01   11.3     0.00000727     -1103.1368101015 -4.81E-06
     7 OT DIIS     0.80E-01   11.2     0.00000388     -1103.1368106702 -5.69E-07
     8 OT DIIS     0.80E-01   11.3     0.00000115     -1103.1368108997 -2.29E-07
     9 OT DIIS     0.80E-01   11.1     0.00000056     -1103.1368109336 -3.39E-08

  *** SCF run converged in     9 steps ***


  Electronic density on regular grids:       -511.9999999876        0.0000000124
  Core density on regular grids:              512.9999999832       -0.0000000168
  Total charge density on r-space grids:        0.9999999955
  Total charge density g-space grids:           0.9999999955

  Overlap energy of the core charge distribution:               0.00000092728546
  Self energy of the core charge distribution:              -2839.62839375007934
  Core Hamiltonian energy:                                    825.21885963964735
  Hartree energy:                                            1182.07446291679616
  Exchange-correlation energy:                               -270.55399296208935
  Dispersion energy:                                           -0.24774770517915

  Total energy:                                             -1103.13681093361902

  outer SCF iter =    1 RMS gradient =   0.56E-06 energy =      -1103.1368109336
  outer SCF loop converged in   1 iterations or    9 steps


 ENERGY| Total FORCE_EVAL ( QS ) energy [a.u.]:            -1103.136810941254453

 MD| ***************************************************************************
 MD| Step number                                                              11
 MD| Time [fs]                                                          5.500000
 MD| Conserved quantity [hartree]                            -0.110279792367E+04
 MD| ---------------------------------------------------------------------------
 MD|                                          Instantaneous             Averages
 MD| CPU time per MD step [s]                    141.263961           326.295222
 MD| Energy drift per atom [K]          -0.120535018247E+01  -0.124484051308E+01
 MD| Potential energy [hartree]         -0.110313681094E+04  -0.110312422288E+04
 MD| Kinetic energy [hartree]            0.317779319491E+00   0.305110999464E+00
 MD| Temperature [K]                             346.620562           332.802482
 MD| ***************************************************************************

 Number of electrons:                                                        512
 Number of occupied orbitals:                                                256
 Number of molecular orbitals:                                               256

 Number of orbital functions:                                               1477
 Number of independent orbital functions:                                   1477

 Extrapolation method: ASPC


 SCF WAVEFUNCTION OPTIMIZATION

  ----------------------------------- OT ---------------------------------------
  Minimizer      : DIIS                : direct inversion
                                         in the iterative subspace
                                         using   7 DIIS vectors
                                         safer DIIS on
  Preconditioner : FULL_SINGLE_INVERSE : inversion of 
                                         H + eS - 2*(Sc)(c^T*H*c+const)(Sc)^T
  Precond_solver : DEFAULT
  stepsize       :    0.08000000                  energy_gap     :    0.08000000
  eps_taylor     :   0.10000E-15                  max_taylor     :             4
  ----------------------------------- OT ---------------------------------------

  Step     Update method      Time    Convergence         Total energy    Change
  ------------------------------------------------------------------------------
     1 OT DIIS     0.80E-01   27.5     0.00023351     -1103.1359208358 -1.10E+03
     2 OT DIIS     0.80E-01   11.3     0.00013023     -1103.1371520182 -1.23E-03
     3 OT DIIS     0.80E-01   10.9     0.00006178     -1103.1376794221 -5.27E-04
     4 OT DIIS     0.80E-01   10.9     0.00002571     -1103.1377862971 -1.07E-04
     5 OT DIIS     0.80E-01   11.4     0.00001789     -1103.1378016955 -1.54E-05
     6 OT DIIS     0.80E-01   11.4     0.00000905     -1103.1378066007 -4.91E-06
     7 OT DIIS     0.80E-01   11.2     0.00000292     -1103.1378076567 -1.06E-06
     8 OT DIIS     0.80E-01   11.1     0.00000107     -1103.1378078707 -2.14E-07
     9 OT DIIS     0.80E-01   11.2     0.00000052     -1103.1378079027 -3.19E-08

  *** SCF run converged in     9 steps ***


  Electronic density on regular grids:       -511.9999999877        0.0000000123
  Core density on regular grids:              512.9999999832       -0.0000000168
  Total charge density on r-space grids:        0.9999999955
  Total charge density g-space grids:           0.9999999955

  Overlap energy of the core charge distribution:               0.00000096461121
  Self energy of the core charge distribution:              -2839.62839375007934
  Core Hamiltonian energy:                                    825.37493288721953
  Hartree energy:                                            1181.96435445975885
  Exchange-correlation energy:                               -270.60089397682464
  Dispersion energy:                                           -0.24780848734060

  Total energy:                                             -1103.13780790265514

  outer SCF iter =    1 RMS gradient =   0.52E-06 energy =      -1103.1378079027
  outer SCF loop converged in   1 iterations or    9 steps


 ENERGY| Total FORCE_EVAL ( QS ) energy [a.u.]:            -1103.137807909069579

 MD| ***************************************************************************
 MD| Step number                                                              12
 MD| Time [fs]                                                          6.000000
 MD| Conserved quantity [hartree]                            -0.110279797807E+04
 MD| ---------------------------------------------------------------------------
 MD|                                          Instantaneous             Averages
 MD| CPU time per MD step [s]                    141.250924           310.874864
 MD| Energy drift per atom [K]          -0.129436342927E+01  -0.124896742276E+01
 MD| Potential energy [hartree]         -0.110313780791E+04  -0.110312535497E+04
 MD| Kinetic energy [hartree]            0.316198620875E+00   0.306034967915E+00
 MD| Temperature [K]                             344.896401           333.810308
 MD| ***************************************************************************

 Number of electrons:                                                        512
 Number of occupied orbitals:                                                256
 Number of molecular orbitals:                                               256

 Number of orbital functions:                                               1477
 Number of independent orbital functions:                                   1477

 Extrapolation method: ASPC


 SCF WAVEFUNCTION OPTIMIZATION

[...]
 -                                                                             -
 -------------------------------------------------------------------------------
 COUNTER                                    TOTAL       BLAS       SMM       ACC
 flops     4 x     4 x     4              1440640       0.0%    100.0%      0.0%
 flops     4 x     4 x   224             31066112       0.0%    100.0%      0.0%
 flops     4 x     4 x   248             34394624       0.0%    100.0%      0.0%
 flops   128 x     4 x    36             41361408       0.0%    100.0%      0.0%
 flops   132 x     4 x    36             42653952       0.0%    100.0%      0.0%
 flops     4 x     4 x   240             66570240       0.0%    100.0%      0.0%
 flops   132 x     4 x    32            113743872       0.0%    100.0%      0.0%
 flops   128 x     4 x    32            127598592       0.0%    100.0%      0.0%
 flops   128 x    36 x   224            136249344       0.0%    100.0%      0.0%
 flops   132 x    36 x   224            140507136       0.0%    100.0%      0.0%
 flops   128 x    36 x   248            150847488       0.0%    100.0%      0.0%
 flops   132 x     4 x    64            151658496       0.0%    100.0%      0.0%
 flops   132 x    36 x   248            155561472       0.0%    100.0%      0.0%
 flops   736 x     4 x     4            157515776       0.0%    100.0%      0.0%
 flops   741 x     4 x     4            158585856       0.0%    100.0%      0.0%
 flops   128 x     4 x    64            164364288       0.0%    100.0%      0.0%
 flops   736 x     4 x    36            237828096       0.0%    100.0%      0.0%
 flops   741 x     4 x    36            239443776       0.0%    100.0%      0.0%
 flops   132 x     4 x   224            265402368       0.0%    100.0%      0.0%
 flops   128 x     4 x   224            287637504       0.0%    100.0%      0.0%
 flops   128 x    36 x   240            291962880       0.0%    100.0%      0.0%
 flops   132 x     4 x   248            293838336       0.0%    100.0%      0.0%
 flops   132 x    36 x   240            301086720       0.0%    100.0%      0.0%
 flops   128 x     4 x   248            318455808       0.0%    100.0%      0.0%
 flops   132 x    32 x   224            374685696       0.0%    100.0%      0.0%
 flops   132 x    32 x   248            414830592       0.0%    100.0%      0.0%
 flops   132 x    64 x   224            499580928       0.0%    100.0%      0.0%
 flops   132 x    64 x   248            553107456       0.0%    100.0%      0.0%
 flops   132 x     4 x   240            568719360       0.0%    100.0%      0.0%
 flops   128 x     4 x   240            616366080       0.0%    100.0%      0.0%
 flops   736 x     4 x    32            683950080       0.0%    100.0%      0.0%
 flops   741 x     4 x    32            688596480       0.0%    100.0%      0.0%
 flops   736 x    36 x   224            783433728       0.0%    100.0%      0.0%
 flops   741 x    36 x   224            788755968       0.0%    100.0%      0.0%
 flops   132 x    32 x   240            802897920       0.0%    100.0%      0.0%
 flops   736 x    36 x   248            867373056       0.0%    100.0%      0.0%
 flops   741 x    36 x   248            873265536       0.0%    100.0%      0.0%
 flops   736 x     4 x    64            895352832       0.0%    100.0%      0.0%
 flops   741 x     4 x    64            901435392       0.0%    100.0%      0.0%
 flops   132 x    64 x   240           1070530560       0.0%    100.0%      0.0%
 flops   736 x     4 x   224           1479819264       0.0%    100.0%      0.0%
 flops   741 x     4 x   224           1489872384       0.0%    100.0%      0.0%
 flops   736 x     4 x   248           1638371328       0.0%    100.0%      0.0%
 flops   741 x     4 x   248           1649501568       0.0%    100.0%      0.0%
 flops   736 x    36 x   240           1678786560       0.0%    100.0%      0.0%
 flops   741 x    36 x   240           1690191360       0.0%    100.0%      0.0%
 flops   736 x     4 x   240           3171041280       0.0%    100.0%      0.0%
 flops   741 x     4 x   240           3192583680       0.0%    100.0%      0.0%
 flops    32 x    32 x   224           3649830912       0.0%    100.0%      0.0%
 flops    32 x    32 x   248           4040884224       0.0%    100.0%      0.0%
 flops    32 x    32 x   240           7821066240       0.0%    100.0%      0.0%
 flops     5 x     4 x     5          13675609200       0.0%    100.0%      0.0%
 flops    13 x     4 x     5          17356849640       0.0%    100.0%      0.0%
 flops     5 x     4 x    13          17356849640       0.0%    100.0%      0.0%
 flops     5 x    32 x    32          21019115520       0.0%    100.0%      0.0%
 flops    13 x     4 x    13          21892062608       0.0%    100.0%      0.0%
 flops    13 x    32 x    32          27113029632       0.0%    100.0%      0.0%
 flops   128 x    64 x    64          74960601088       0.0%    100.0%      0.0%
 flops   128 x    64 x    32          74960601088       0.0%    100.0%      0.0%
 flops   128 x    32 x    32          74960601088       0.0%    100.0%      0.0%
 flops   128 x    32 x    64          74960601088       0.0%    100.0%      0.0%
 flops   736 x    32 x   224          79873310720       0.0%    100.0%      0.0%
 flops   741 x    32 x   224          80415928320       0.0%    100.0%      0.0%
 flops   736 x    64 x   224          80569696256       0.0%    100.0%      0.0%
 flops   741 x    64 x   224          81117044736       0.0%    100.0%      0.0%
 flops   736 x    32 x   248          88431165440       0.0%    100.0%      0.0%
 flops   741 x    32 x   248          89031920640       0.0%    100.0%      0.0%
 flops   736 x    64 x   248          89202163712       0.0%    100.0%      0.0%
 flops   741 x    64 x   248          89808156672       0.0%    100.0%      0.0%
 flops   128 x    32 x   224          93332176896       0.0%    100.0%      0.0%
 flops   128 x    64 x   224          93453287424       0.0%    100.0%      0.0%
 flops   128 x    32 x   248         103332052992       0.0%    100.0%      0.0%
 flops   128 x    64 x   248         103466139648       0.0%    100.0%      0.0%
 flops     5 x     5 x    64         112281030400       0.0%    100.0%      0.0%
 flops     5 x     5 x    32         112281030400       0.0%    100.0%      0.0%
 flops    13 x     5 x    64         141461864960       0.0%    100.0%      0.0%
 flops    13 x     5 x    32         141461864960       0.0%    100.0%      0.0%
 flops     5 x    13 x    64         141617349120       0.0%    100.0%      0.0%
 flops     5 x    13 x    32         141617349120       0.0%    100.0%      0.0%
 flops   736 x    32 x   240         171157094400       0.0%    100.0%      0.0%
 flops   741 x    32 x   240         172319846400       0.0%    100.0%      0.0%
 flops   736 x    64 x   240         172649349120       0.0%    100.0%      0.0%
 flops   741 x    64 x   240         173822238720       0.0%    100.0%      0.0%
 flops    13 x    13 x    64         182103800320       0.0%    100.0%      0.0%
 flops    13 x    13 x    32         182103800320       0.0%    100.0%      0.0%
 flops   736 x    32 x    32         184931057664       0.0%    100.0%      0.0%
 flops   736 x    32 x    64         184931057664       0.0%    100.0%      0.0%
 flops   736 x    64 x    32         184931057664       0.0%    100.0%      0.0%
 flops   736 x    64 x    64         184931057664       0.0%    100.0%      0.0%
 flops   741 x    64 x    64         186187382784       0.0%    100.0%      0.0%
 flops   741 x    64 x    32         186187382784       0.0%    100.0%      0.0%
 flops   741 x    32 x    32         186187382784       0.0%    100.0%      0.0%
 flops   741 x    32 x    64         186187382784       0.0%    100.0%      0.0%
 flops   128 x    32 x   240         199997521920       0.0%    100.0%      0.0%
 flops   128 x    64 x   240         200257044480       0.0%    100.0%      0.0%
 flops     5 x    32 x     5        1024465945600       0.0%    100.0%      0.0%
 flops    13 x    32 x     5        1300102768640       0.0%    100.0%      0.0%
 flops     5 x    32 x    13        1300102768640       0.0%    100.0%      0.0%
 flops    13 x    32 x    13        1639646068736       0.0%    100.0%      0.0%
 flops inhomo. stacks               1222622387712     100.0%      0.0%      0.0%
 flops total                        11.753628E+12      10.4%     89.6%      0.0%
 flops max/rank                      1.465641E+12      10.7%     89.3%      0.0%
 matmuls inhomo. stacks                    233212     100.0%      0.0%      0.0%
 matmuls total                         1805871995       0.0%    100.0%      0.0%
 number of processed stacks               5153107       4.3%     95.7%      0.0%
 average stack size                                     1.0     366.2       0.0
 marketing flops                    13.907160E+12
 -------------------------------------------------------------------------------
 # multiplications                          65010
 max memory usage/rank             578.285568E+06
 # max total images/rank                        3
 # max 3D layers                                1
 # MPI messages exchanged                 6240960
 MPI messages size (bytes):
  total size                         1.408096E+12
  min size                           0.000000E+00
  max size                           1.564992E+06
  average size                     225.621656E+03
 MPI breakdown and total messages size (bytes):
             size <=      128             2232746                  9508352
       128 < size <=     8192              415724               3232900096
      8192 < size <=    32768              846424              21106008768
     32768 < size <=   131072              755374              55600345984
    131072 < size <=  4194304             1990692            1328401302840
   4194304 < size <= 16777216                   0                        0
  16777216 < size                               0                        0
 -------------------------------------------------------------------------------

 *** WARNING in dbcsr_mm.F:294 :: Using a non-square number of MPI ranks ***
 *** might lead to poor performance. Used ranks: 12 Suggested: 9 25      ***

 -------------------------------------------------------------------------------
 -                                                                             -
 -                      DBCSR MESSAGE PASSING PERFORMANCE                      -
 -                                                                             -
 -------------------------------------------------------------------------------
 ROUTINE             CALLS      AVE VOLUME [Bytes]
 MP_Bcast              100                     12.
 MP_Allreduce       328792                      8.
 MP_Alltoall        258398                  47480.
 MP_ISend          1409560                  98494.
 MP_IRecv          1392224                  96729.
 -------------------------------------------------------------------------------

 -------------------------------------------------------------------------------
 -                                                                             -
 -                                GRID STATISTICS                              -
 -                                                                             -
 -------------------------------------------------------------------------------
 LP    KERNEL    OPERATION                                     COUNT     PERCENT
 0     general   collocate                                    509520       0.13%
 0     ortho     integrate                                  56416496      14.06%
 0     ortho     collocate                                  64068214      15.97%
 1     general   integrate                                    509520       0.13%
 1     ortho     integrate                                  76155008      18.98%
 1     ortho     collocate                                  86484511      21.56%
 2     ortho     integrate                                  36378603       9.07%
 2     ortho     collocate                                  41312751      10.30%
 3     ortho     integrate                                  14486405       3.61%
 3     ortho     collocate                                   7762171       1.93%
 4     ortho     integrate                                  10722669       2.67%
 4     ortho     collocate                                    446442       0.11%
 5     ortho     integrate                                   4934148       1.23%
 6     ortho     integrate                                    927484       0.23%
 7     ortho     integrate                                     53276       0.01%
 -------------------------------------------------------------------------------

 MEMORY| Estimated peak process memory [MiB]                                 549

 -------------------------------------------------------------------------------
 -                                                                             -
 -                         MESSAGE PASSING PERFORMANCE                         -
 -                                                                             -
 -------------------------------------------------------------------------------

 ROUTINE             CALLS      AVE VOLUME [Bytes]
 MP_Group                4
 MP_Bcast            60745                   6160.
 MP_Allreduce       163557                   2176.
 MP_Sync              1904
 MP_Alltoall         38078               10557305.
 MP_SendRecv          9680                   4328.
 MP_ISendRecv       121572                 218880.
 MP_Wait            199928
 MP_comm_split        1900
 MP_ISend            65984                 503475.
 MP_IRecv            65984                 503475.
 -------------------------------------------------------------------------------


 -------------------------------------------------------------------------------
 -                                                                             -
 -                           R E F E R E N C E S                               -
 -                                                                             -
 -------------------------------------------------------------------------------
 
 CP2K version 8.0 (Development Version), the CP2K developers group (2020).
 CP2K is freely available from https://www.cp2k.org/ .

 Kuehne,Thomas D.; Iannuzzi,Marcella; Del Ben,Mauro;
 Rybkin,Vladimir V.; Seewald,Patrick; Stein,Frederick; Laino,Teodoro;
 Khaliullin,Rustam Z.; Schuett,Ole; Schiffmann,Florian; Golze,Dorothea;
 Wilhelm,Jan; Chulkov,Sergey; Bani-Hashemian,Mohammad Hossein;
 Weber,Valery; Borstnik,Urban; Taillefumier,Mathieu;
 Jakobovits,Alice Shoshana; Lazzaro,Alfio; Pabst,Hans; Mueller,Tiziano;
 Schade,Robert; Guidon,Manuel; Andermatt,Samuel; Holmberg,Nico;
 Schenter,Gregory K.; Hehn,Anna; Bussy,Augustin; Belleflamme,Fabian;
 Tabacchi,Gloria; Gloess,Andreas; Lass,Michael; Bethune,Iain;
 Mundy,Christopher J.; Plessl,Christian; Watkins,Matt;
 VandeVondele,Joost; Krack,Matthias; Hutter,Juerg. 
 The Journal of Chemical Physics, 152 (19), (2020). 
 CP2K: An electronic structure and molecular dynamics software package -
 Quickstep: Efficient and accurate electronic structure calculations.
 https://doi.org/10.1063/5.0007045

 Goerigk, Lars; Hansen, Andreas; Bauer, Christoph; Ehrlich, Stephan;
 Najibi, Asim; Grimme, Stefan. , 19 (48), (2017). 
 A look at the density functional theory zoo with the advanced GMTKN55 database
 for general main group thermochemistry, kinetics and noncovalent interactions.
 https://doi.org/10.1039/C7CP04913G

 Schuett, Ole; Messmer, Peter; Hutter, Juerg; VandeVondele, Joost. 
 Electronic Structure Calculations on Graphics Processing Units, John
 Wiley & Sons, Ltd, 173-190 (2016). 
 GPU-Accelerated Sparse Matrix-Matrix Multiplication for
 Linear Scaling Density Functional Theory.
 https://doi.org/10.1002/9781118670712.ch8

 Borstnik, U; VandeVondele, J; Weber, V; Hutter, J. 
 PARALLEL COMPUTING, 40 (5-6), 47-58 (2014). 
 Sparse matrix multiplication: The distributed block-compressed sparse
 row library.
 https://doi.org/10.1016/j.parco.2014.03.012

 Hutter, J; Iannuzzi, M; Schiffmann, F; VandeVondele, J. 
 WIREs Comput Mol Sci., 4 (1), 15-25 (2014). 
 CP2K: atomistic simulations of condensed matter systems.
 https://doi.org/10.1002/wcms.1159

 Marek, A; Blum, V; Johanni, R; Havu, V; Lang, B; Auckenthaler, T;
 Heinecke, A; Bungartz, H; Lederer, H. 
 Journal of Physics: Condensed Matter, 26 (21), (2014). 
 The ELPA library: scalable parallel eigenvalue solutions for
 electronic structure
 theory and computational science.
 https://doi.org/10.1088/0953-8984/26/21/213201

 Grimme, S; Ehrlich, S; Goerigk, L. 
 JOURNAL OF COMPUTATIONAL CHEMISTRY, 32, 1456 (2011). 
 Effect of the damping function in dispersion corrected density functional theory.
 https://doi.org/10.1002/jcc.21759

 Grimme, S; Antony, J; Ehrlich, S; Krieg, H. 
 JOURNAL OF CHEMICAL PHYSICS, 132 (15), 154104 (2010). 
 A consistent and accurate ab initio parametrization of density
 functional dispersion correction (DFT-D) for the 94 elements H-Pu.
 https://doi.org/10.1063/1.3382344

 Ceriotti, M; Bussi, G; Parrinello, M. 
 PHYSICAL REVIEW LETTERS, 103 (3), 030603 (2009). 
 Nuclear Quantum Effects in Solids Using a Colored-Noise Thermostat.
 https://doi.org/10.1103/PhysRevLett.103.030603

 Ceriotti, M; Bussi, G; Parrinello, M. 
 PHYSICAL REVIEW LETTERS, 102 (2), 020601 (2009). 
 Langevin equation with colored noise for constant-temperature
 molecular dynamics simulations.
 https://doi.org/10.1103/PhysRevLett.102.020601

 Kuhne, TD; Krack, M; Mohamed, FR; Parrinello, M. 
 PHYSICAL REVIEW LETTERS, 98 (6), 066401 (2007). 
 Efficient and accurate Car-Parrinello-like approach to
 Born-Oppenheimer molecular dynamics.
 https://doi.org/10.1103/PhysRevLett.98.066401

 Krack, M. 
 THEORETICAL CHEMISTRY ACCOUNTS, 114 (1-3), 145-152 (2005). 
 Pseudopotentials for H to Kr optimized for gradient-corrected
 exchange-correlation functionals.
 https://doi.org/10.1007/s00214-005-0655-y

 VandeVondele, J; Krack, M; Mohamed, F; Parrinello, M; Chassaing, T;
 Hutter, J. COMPUTER PHYSICS COMMUNICATIONS, 167 (2), 103-128 (2005). 
 QUICKSTEP: Fast and accurate density functional calculations using a
 mixed Gaussian and plane waves approach.
 https://doi.org/10.1016/j.cpc.2004.12.014

 Frigo, M; Johnson, SG. 
 PROCEEDINGS OF THE IEEE, 93 (2), 216-231 (2005). 
 The design and implementation of FFTW3.
 https://doi.org/10.1109/JPROC.2004.840301

 Kolafa, J. 
 JOURNAL OF COMPUTATIONAL CHEMISTRY, 25 (3), 335-342 (2004). 
 Time-reversible always stable predictor-corrector method for molecular dynamics of polarizable molecules.
 https://doi.org/10.1002/jcc.10385

 VandeVondele, J; Hutter, J. 
 JOURNAL OF CHEMICAL PHYSICS, 118 (10), 4365-4369 (2003). 
 An efficient orbital transformation method for electronic structure
 calculations.
 https://doi.org/10.1063/1.1543154

 Hartwigsen, C; Goedecker, S; Hutter, J. 
 PHYSICAL REVIEW B, 58 (7), 3641-3662 (1998). 
 Relativistic separable dual-space Gaussian pseudopotentials from H to Rn.
 https://doi.org/10.1103/PhysRevB.58.3641

 Lippert, G; Hutter, J; Parrinello, M. 
 MOLECULAR PHYSICS, 92 (3), 477-487 (1997). 
 A hybrid Gaussian and plane wave density functional scheme.
 https://doi.org/10.1080/002689797170220

 Perdew, JP; Burke, K; Ernzerhof, M. 
 PHYSICAL REVIEW LETTERS, 77 (18), 3865-3868 (1996). 
 Generalized gradient approximation made simple.
 https://doi.org/10.1103/PhysRevLett.77.3865

 Goedecker, S; Teter, M; Hutter, J. 
 PHYSICAL REVIEW B, 54 (3), 1703-1710 (1996). 
 Separable dual-space Gaussian pseudopotentials.
 https://doi.org/10.1103/PhysRevB.54.1703

slurmstepd: error: *** JOB 53861502 ON cm002 CANCELLED AT 2024-11-21T21:54:12 DUE TO TIME LIMIT ***
slurmstepd: error: *** JOB 53862019 ON cm037 CANCELLED AT 2024-11-21T21:55:12 DUE TO TIME LIMIT ***
