#     Step Nr.          Time[fs]        Kin.[a.u.]          Temp[K]            Pot.[a.u.]        Cons Qty[a.u.]        UsedTime[s]
         0            0.000000         0.273612846       300.000000000     -1102.629448594     -1102.355835748         0.000000000
         1            0.500000         0.279633819       306.601634918     -1102.634728487     -1102.356032711      2753.579174656
         2            1.000000         0.278176228       305.003473713     -1102.643688340     -1102.356285322       166.941137210
         3            1.500000         0.280393422       307.434492997     -1102.653080703     -1102.356547289       167.705162838
         4            2.000000         0.282889483       310.171274159     -1102.655862600     -1102.356593452       170.629144814
         5            2.500000         0.294372846       322.762089256     -1102.653391721     -1102.356505399       173.536193021
         6            3.000000         0.293202260       321.478612092     -1102.644027094     -1102.356292113       173.132116813
         7            3.500000         0.275739443       302.331685376     -1102.631056927     -1102.356023130       171.148110341
         8            4.000000         0.264614578       290.133941924     -1102.619771042     -1102.355795899       175.157138821
         9            4.500000         0.268857948       294.786540953     -1102.613634927     -1102.355689469       171.690160707
        10            5.000000         0.262607548       287.933354685     -1102.612082629     -1102.355666725      1166.745079450
        11            5.500000         0.288697192       316.539076467     -1102.616775792     -1102.355783250       170.287091207
        12            6.000000         0.295096611       323.555654134     -1102.622813260     -1102.355937950       171.699168500
        13            6.500000         0.289353988       317.259214176     -1102.629250655     -1102.356081233       174.815178029
        14            7.000000         0.287416783       315.135185470     -1102.637410482     -1102.356246228       173.522128955
        15            7.500000         0.310165102       340.077346930     -1102.641761748     -1102.356328622       174.185161993
        16            8.000000         0.323802738       355.030192819     -1102.645349103     -1102.356402515       173.538151644
        17            8.500000         0.301956868       331.077513241     -1102.645418760     -1102.356418530       176.173182085
        18            9.000000         0.286912673       314.582459298     -1102.641734958     -1102.356310656       172.729147982
        19            9.500000         0.276541909       303.211541919     -1102.635703652     -1102.356123440       172.556169610
        20           10.000000         0.260847091       286.003119536     -1102.628436222     -1102.355915126      1283.490220122
        21           10.500000         0.250829117       275.019014031     -1102.621372875     -1102.355688604       171.991185237
        22           11.000000         0.252589683       276.949368713     -1102.619839890     -1102.355630752       167.896097925
        23           11.500000         0.254712048       279.276413740     -1102.626571548     -1102.355823251       172.506149136
        24           12.000000         0.265639894       291.258138723     -1102.636526005     -1102.356020668       169.339154173
        25           12.500000         0.277078124       303.799469221     -1102.645826859     -1102.356189502       169.724155832
        26           13.000000         0.276140999       302.771967344     -1102.652591961     -1102.356272544       171.122164302
        27           13.500000         0.297663960       326.370597939     -1102.655384720     -1102.356219451       173.038156379
        28           14.000000         0.292250721       320.435307919     -1102.655692042     -1102.356103565       173.228154134
        29           14.500000         0.281400579       308.538780420     -1102.654888372     -1102.356028025       172.902197413
        30           15.000000         0.286612223       314.253034546     -1102.651854052     -1102.355941964      1336.170318097
        31           15.500000         0.301188497       330.235039789     -1102.649497290     -1102.355883179       174.162128210
        32           16.000000         0.299504682       328.388838219     -1102.646731418     -1102.355818637       170.156154875
        33           16.500000         0.291057519       319.127033606     -1102.645976761     -1102.355750903       171.165163700
        34           17.000000         0.291210761       319.295053980     -1102.647476574     -1102.355705892       173.120165125
        35           17.500000         0.303751951       333.045713179     -1102.652982102     -1102.355823547       171.725157008
        36           18.000000         0.299220135       328.076849934     -1102.659956618     -1102.356048442       172.881165519
        37           18.500000         0.316528355       347.054270077     -1102.662878593     -1102.356180240       171.584195863
        38           19.000000         0.312059887       342.154864507     -1102.660507582     -1102.356202008       170.902136236
        39           19.500000         0.316171730       346.663252967     -1102.656115673     -1102.356078685       170.833171111
        40           20.000000         0.299355453       328.225217601     -1102.648878514     -1102.355890093      1225.416255213
        41           20.500000         0.290515955       318.533241422     -1102.643145712     -1102.355773629       169.899122424
        42           21.000000         0.292335239       320.527976607     -1102.641775355     -1102.355839829       171.227174420
        43           21.500000         0.292864229       321.107981598     -1102.641696945     -1102.355896983       172.163154013
        44           22.000000         0.298441806       327.223458585     -1102.641498294     -1102.355927731       170.643163878
        45           22.500000         0.281584966       308.740950017     -1102.641249503     -1102.355973007       170.778204996
        46           23.000000         0.268647469       294.555763713     -1102.638733432     -1102.355935123       171.053140610
        47           23.500000         0.272321768       298.584410955     -1102.640558486     -1102.355980954       174.002157439
        48           24.000000         0.280027628       307.033422556     -1102.643886369     -1102.356039317       171.863171726
        49           24.500000         0.277870189       304.667920803     -1102.647866085     -1102.356127491       170.717160642
        50           25.000000         0.275189966       301.729217684     -1102.650936078     -1102.356256634      1570.371540233
        51           25.500000         0.260569407       285.698655714     -1102.652308206     -1102.356346909       171.002124585
        52           26.000000         0.260067903       285.148786102     -1102.653011744     -1102.356342919       172.378202356
        53           26.500000         0.259523824       284.552236394     -1102.650868573     -1102.356222289       173.351128109
        54           27.000000         0.258216561       283.118901724     -1102.649712215     -1102.356088336       172.242161099
        55           27.500000         0.252322957       276.656919568     -1102.649573181     -1102.356007795       171.524163503
        56           28.000000         0.250219224       274.350303125     -1102.654470790     -1102.356129352       172.291161254
        57           28.500000         0.266792766       292.522193684     -1102.663219866     -1102.356395973       174.367168196
        58           29.000000         0.270022295       296.063177828     -1102.667565255     -1102.356510507       171.143164061
        59           29.500000         0.272968396       299.293400089     -1102.671480487     -1102.356565130       172.328199953
        60           30.000000         0.276980269       303.692176295     -1102.671991386     -1102.356537916      1344.481982082
        61           30.500000         0.274619786       301.104049797     -1102.671363550     -1102.356500826       175.230115257
        62           31.000000         0.274218381       300.663932521     -1102.668392698     -1102.356435724       172.296187885
        63           31.500000         0.278232801       305.065502826     -1102.666314114     -1102.356430160       169.520204991
        64           32.000000         0.291317859       319.412480537     -1102.662998567     -1102.356351195       172.951213352
        65           32.500000         0.287118339       314.807959572     -1102.660598886     -1102.356288021       172.908280220
        66           33.000000         0.277406894       304.159944898     -1102.656416776     -1102.356161111       172.806378864
        67           33.500000         0.269359451       295.336408691     -1102.654625485     -1102.356095346       173.130407758
        68           34.000000         0.284279324       311.695150794     -1102.655748156     -1102.356119225       172.540168695
        69           34.500000         0.307167002       336.790110299     -1102.663050205     -1102.356274076       171.723263305
