 DBCSR| CPU Multiplication driver                                           XSMM
 DBCSR| Multrec recursion limit                                              512
 DBCSR| Multiplication stack size                                           1000
 DBCSR| Maximum elements for images                                    UNLIMITED
 DBCSR| Multiplicative factor virtual images                                   1
 DBCSR| Use multiplication densification                                       T
 DBCSR| Multiplication size stacks                                             3
 DBCSR| Use memory pool for CPU allocation                                     F
 DBCSR| Number of 3D layers                                               SINGLE
 DBCSR| Use MPI memory allocation                                              F
 DBCSR| Use RMA algorithm                                                      F
 DBCSR| Use Communication thread                                               T
 DBCSR| Communication thread load                                             87
 DBCSR| MPI: My node id                                                        0
 DBCSR| MPI: Number of nodes                                                  12
 DBCSR| OMP: Current number of threads                                         1
 DBCSR| OMP: Max number of threads                                             1
 DBCSR| Split modifier for TAS multiplication algorithm                  1.0E+00


  **** **** ******  **  PROGRAM STARTED AT               2024-11-21 15:51:40.132
 ***** ** ***  *** **   PROGRAM STARTED ON                     cm047.hpc.nyu.edu
 **    ****   ******    PROGRAM STARTED BY                               rjs9331
 ***** **    ** ** **   PROGRAM PROCESS ID                               2563804
  **** **  *******  **  PROGRAM STARTED IN /home/rjs9331/comp-lab/comp-lab-class
                                           -2024/Week12-IntroAIMD/Runs_Water

 CP2K| version string:                    CP2K version 8.0 (Development Version)
 CP2K| source code revision number:                                  git:8c64c6e
 CP2K| cp2kflags: omp libint fftw3 libxc elpa parallel mpi3 scalapack xsmm max_c
 CP2K|            ontr=4 mkl
 CP2K| is freely available from                            https://www.cp2k.org/
 CP2K| Program compiled at                          Sat Dec 12 18:27:15 EST 2020
 CP2K| Program compiled on                                     cs001.nyu.cluster
 CP2K| Program compiled for                                            nyu-intel
 CP2K| Data directory path                    /home/wang/cp2k-20201212/cp2k/data
 CP2K| Input file name                                                 water.inp
 
 GLOBAL| Force Environment number                                              1
 GLOBAL| Basis set file name                                           HFX_BASIS
 GLOBAL| Potential file name                                      GTH_POTENTIALS
 GLOBAL| MM Potential file name                                     MM_POTENTIAL
 GLOBAL| Coordinate file name                                          water.xyz
 GLOBAL| Method name                                                        CP2K
 GLOBAL| Project name                                  water_aimd_1ps_every0.5fs
 GLOBAL| Preferred FFT library                                             FFTW3
 GLOBAL| Preferred diagonalization lib.                                     ELPA
 GLOBAL| Run type                                                             MD
 GLOBAL| All-to-all communication in single precision                          F
 GLOBAL| FFTs using library dependent lengths                                  F
 GLOBAL| Global print level                                                  LOW
 GLOBAL| MPI I/O enabled                                                       T
 GLOBAL| Total number of message passing processes                            12
 GLOBAL| Number of threads for this process                                    1
 GLOBAL| This output is from process                                           0
 GLOBAL| CPU model name             Intel(R) Xeon(R) Platinum 8268 CPU @ 2.90GHz
 GLOBAL| CPUID                                                              1003
 GLOBAL| Compiled for CPUID                                                    0

 *** HINT in environment.F:801 :: The compiler target flags (generic) used ***
 *** to build this binary cannot exploit all extensions of this CPU model  ***
 *** (x86_avx512). Consider compiler target flags as part of FCFLAGS and   ***
 *** CFLAGS (ARCH file).                                                   ***


 MEMORY| system memory details [Kb]
 MEMORY|                        rank 0           min           max       average
 MEMORY| MemTotal            395095004     395095004     395095004     395095004
 MEMORY| MemFree             358842364     358842364     358842364     358842364
 MEMORY| Buffers                 31192         31192         31192         31192
 MEMORY| Cached               11644060      11644060      11644060      11644060
 MEMORY| Slab                  1228016       1228016       1228016       1228016
 MEMORY| SReclaimable           586356        586356        586356        586356
 MEMORY| MemLikelyFree       371103972     371103972     371103972     371103972

 
 GENERATE|  Preliminary Number of Bonds generated:                             0
 GENERATE|  Achieved consistency in connectivity generation.

 *******************************************************************************
 *******************************************************************************
 **                                                                           **
 **     #####                         ##              ##                      **
 **    ##   ##            ##          ##              ##                      **
 **   ##     ##                       ##            ######                    **
 **   ##     ##  ##   ##  ##   #####  ##  ##   ####   ##    #####    #####    **
 **   ##     ##  ##   ##  ##  ##      ## ##   ##      ##   ##   ##  ##   ##   **
 **   ##  ## ##  ##   ##  ##  ##      ####     ###    ##   ######   ######    **
 **    ##  ###   ##   ##  ##  ##      ## ##      ##   ##   ##       ##        **
 **     #######   #####   ##   #####  ##  ##  ####    ##    #####   ##        **
 **           ##                                                    ##        **
 **                                                                           **
 **                                                ... make the atoms dance   **
 **                                                                           **
 **            Copyright (C) by CP2K developers group (2000 - 2020)           **
 **                      J. Chem. Phys. 152, 194103 (2020)                    **
 **                                                                           **
 *******************************************************************************


 TOTAL NUMBERS AND MAXIMUM NUMBERS

  Total number of            - Atomic kinds:                                   2
                             - Atoms:                                        192
                             - Shell sets:                                   576
                             - Shells:                                       704
                             - Primitive Cartesian functions:                960
                             - Cartesian basis functions:                   1536
                             - Spherical basis functions:                   1472

  Maximum angular momentum of- Orbital basis functions:                        2
                             - Local part of the GTH pseudopotential:          2
                             - Non-local part of the GTH pseudopotential:      0


 SCF PARAMETERS         Density guess:                                    ATOMIC
                        --------------------------------------------------------
                        max_scf:                                              30
                        max_scf_history:                                       0
                        max_diis:                                              4
                        --------------------------------------------------------
                        eps_scf:                                        1.00E-06
                        eps_scf_history:                                0.00E+00
                        eps_diis:                                       1.00E-01
                        eps_eigval:                                     1.00E-05
                        --------------------------------------------------------
                        level_shift [a.u.]:                                 0.00
                        --------------------------------------------------------
                        Outer loop SCF in use 
                        No variables optimised in outer loop
                        eps_scf                                         1.00E-06
                        max_scf                                               10
                        No outer loop optimization
                        step_size                                       5.00E-01
 
 MD_PAR| Molecular dynamics protocol (MD input parameters)
 MD_PAR| Ensemble type                                                       NVT
 MD_PAR| Number of time steps                                               2000
 MD_PAR| Time step [fs]                                                 0.500000
 MD_PAR| Temperature [K]                                              300.000000
 MD_PAR| Temperature tolerance [K]                                      0.000000
 MD_PAR| Print MD information every                                    1 step(s)
 MD_PAR| File type   Print frequency [steps]                          File names
 MD_PAR| Coordinates          1              water_aimd_1ps_every0.5fs-pos-1.xyz
 MD_PAR| Velocities           1              water_aimd_1ps_every0.5fs-vel-1.xyz
 MD_PAR| Energies             1                 water_aimd_1ps_every0.5fs-1.ener
 MD_PAR| Dump                 1              water_aimd_1ps_every0.5fs-1.restart

 ROT| Rotational analysis information
 ROT| Principal axes and moments of inertia [a.u.]
 ROT|                           1                   2                   3
 ROT| Eigenvalues      2.05585957588E+08   2.18420756715E+08   2.44815971865E+08
 ROT|      x              0.422535724749     -0.517084350433      0.744370429187
 ROT|      y              0.905625145748      0.208115968654     -0.369500796994
 ROT|      z              0.036147706690      0.830247865477      0.556221021872
 ROT| Number of rotovibrational vectors                                        6

 DOF| Calculation of degrees of freedom
 DOF| Number of atoms                                                        192
 DOF| Number of intramolecular constraints                                     0
 DOF| Number of intermolecular constraints                                     0
 DOF| Invariants (translations + rotations)                                    0
 DOF| Degrees of freedom                                                     576

 DOF| Restraints information
 DOF| Number of intramolecular restraints                                      0
 DOF| Number of intermolecular restraints                                      0

 THERMOSTAT| Thermostat information for PARTICLES
 THERMOSTAT| End of thermostat information for PARTICLES

 MD_VEL| Velocities initialization
 MD_VEL| Initial temperature [K]                                      300.000000
 MD_VEL| COM velocity             0.0000000000    -0.0000000000     0.0000000000

 Number of electrons:                                                        512
 Number of occupied orbitals:                                                256
 Number of molecular orbitals:                                               256

 Number of orbital functions:                                               1472
 Number of independent orbital functions:                                   1472

 Extrapolation method: initial_guess


 SCF WAVEFUNCTION OPTIMIZATION

  ----------------------------------- OT ---------------------------------------
  Minimizer      : DIIS                : direct inversion
                                         in the iterative subspace
                                         using   7 DIIS vectors
                                         safer DIIS on
  Preconditioner : FULL_SINGLE_INVERSE : inversion of 
                                         H + eS - 2*(Sc)(c^T*H*c+const)(Sc)^T
  Precond_solver : DEFAULT
  stepsize       :    0.08000000                  energy_gap     :    0.08000000
  eps_taylor     :   0.10000E-15                  max_taylor     :             4
  ----------------------------------- OT ---------------------------------------

  Step     Update method      Time    Convergence         Total energy    Change
  ------------------------------------------------------------------------------
     1 OT DIIS     0.80E-01   64.4     0.02979138     -1059.5117370997 -1.06E+03
     2 OT DIIS     0.80E-01   30.4     0.02151348     -1079.6271803158 -2.01E+01
     3 OT DIIS     0.80E-01   31.2     0.01644743     -1090.1857861946 -1.06E+01
     4 OT DIIS     0.80E-01   31.6     0.00993331     -1097.9489840315 -7.76E+00
     5 OT DIIS     0.80E-01   31.2     0.00640250     -1100.1897484506 -2.24E+00
     6 OT DIIS     0.80E-01   31.6     0.00449382     -1101.4259659520 -1.24E+00
     7 OT DIIS     0.80E-01   31.1     0.00313319     -1101.9491512804 -5.23E-01
     8 OT DIIS     0.80E-01   31.2     0.00205842     -1102.2785605865 -3.29E-01
     9 OT DIIS     0.80E-01   31.7     0.00138024     -1102.4307083644 -1.52E-01
    10 OT DIIS     0.80E-01   30.8     0.00110551     -1102.4906905235 -6.00E-02
    11 OT DIIS     0.80E-01   30.5     0.00079426     -1102.5454090294 -5.47E-02
    12 OT DIIS     0.80E-01   31.3     0.00061734     -1102.5751208108 -2.97E-02
    13 OT DIIS     0.80E-01   31.1     0.00042219     -1102.5977421542 -2.26E-02
    14 OT DIIS     0.80E-01   31.0     0.00030276     -1102.6113289899 -1.36E-02
    15 OT DIIS     0.80E-01   31.7     0.00021270     -1102.6186445185 -7.32E-03
    16 OT DIIS     0.80E-01   31.4     0.00016097     -1102.6221779986 -3.53E-03
    17 OT DIIS     0.80E-01   30.9     0.00013225     -1102.6239634966 -1.79E-03
    18 OT DIIS     0.80E-01   31.8     0.00010630     -1102.6251175867 -1.15E-03
    19 OT DIIS     0.80E-01   31.2     0.00008633     -1102.6259836398 -8.66E-04
    20 OT DIIS     0.80E-01   30.5     0.00007396     -1102.6265547387 -5.71E-04
    21 OT DIIS     0.80E-01   30.7     0.00006396     -1102.6269783906 -4.24E-04
    22 OT DIIS     0.80E-01   31.2     0.00005545     -1102.6273343193 -3.56E-04
    23 OT DIIS     0.80E-01   31.1     0.00004838     -1102.6276225443 -2.88E-04
    24 OT DIIS     0.80E-01   31.7     0.00004214     -1102.6278658023 -2.43E-04
    25 OT DIIS     0.80E-01   31.3     0.00003799     -1102.6280438649 -1.78E-04
    26 OT DIIS     0.80E-01   31.4     0.00003481     -1102.6281744642 -1.31E-04
    27 OT DIIS     0.80E-01   30.9     0.00003158     -1102.6282939151 -1.19E-04
    28 OT DIIS     0.80E-01   30.3     0.00002895     -1102.6283997808 -1.06E-04
    29 OT DIIS     0.80E-01   31.0     0.00002694     -1102.6284862534 -8.65E-05
    30 OT DIIS     0.80E-01   31.2     0.00002493     -1102.6285676143 -8.14E-05

  Leaving inner SCF loop after reaching    30 steps.


  Electronic density on regular grids:       -511.9999999887        0.0000000113
  Core density on regular grids:              511.9999999832       -0.0000000168
  Total charge density on r-space grids:       -0.0000000055
  Total charge density g-space grids:          -0.0000000055

  Overlap energy of the core charge distribution:               0.00000237129466
  Self energy of the core charge distribution:              -2838.21791979120962
  Core Hamiltonian energy:                                    829.95624199358326
  Hartree energy:                                            1177.81191005917071
  Exchange-correlation energy:                               -271.93300064642665
  Dispersion energy:                                           -0.24580160066492

  Total energy:                                             -1102.62856761425246

  outer SCF iter =    1 RMS gradient =   0.25E-04 energy =      -1102.6285676143

  ----------------------------------- OT ---------------------------------------
  Minimizer      : DIIS                : direct inversion
                                         in the iterative subspace
                                         using   7 DIIS vectors
                                         safer DIIS on
  Preconditioner : FULL_SINGLE_INVERSE : inversion of 
                                         H + eS - 2*(Sc)(c^T*H*c+const)(Sc)^T
  Precond_solver : DEFAULT
  stepsize       :    0.08000000                  energy_gap     :    0.08000000
  eps_taylor     :   0.10000E-15                  max_taylor     :             4
  ----------------------------------- OT ---------------------------------------

  Step     Update method      Time    Convergence         Total energy    Change
  ------------------------------------------------------------------------------
     1 OT DIIS     0.80E-01   93.7     0.00013129     -1102.6286382279 -7.06E-05
     2 OT DIIS     0.80E-01   16.4     0.00008751     -1102.6290682650 -4.30E-04
     3 OT DIIS     0.80E-01   16.1     0.00002260     -1102.6294221577 -3.54E-04
     4 OT DIIS     0.80E-01   16.1     0.00001004     -1102.6294436048 -2.14E-05
     5 OT DIIS     0.80E-01   16.4     0.00000424     -1102.6294476654 -4.06E-06
     6 OT DIIS     0.80E-01   16.8     0.00000175     -1102.6294484310 -7.66E-07
     7 OT DIIS     0.80E-01   16.6     0.00000082     -1102.6294485619 -1.31E-07

  *** SCF run converged in     7 steps ***


  Electronic density on regular grids:       -511.9999999887        0.0000000113
  Core density on regular grids:              511.9999999832       -0.0000000168
  Total charge density on r-space grids:       -0.0000000055
  Total charge density g-space grids:          -0.0000000055

  Overlap energy of the core charge distribution:               0.00000237129466
  Self energy of the core charge distribution:              -2838.21791979120962
  Core Hamiltonian energy:                                    829.95792476645443
  Hartree energy:                                            1177.81068023456237
  Exchange-correlation energy:                               -271.93433454232616
  Dispersion energy:                                           -0.24580160066492

  Total energy:                                             -1102.62944856188915

  outer SCF iter =    2 RMS gradient =   0.82E-06 energy =      -1102.6294485619
  outer SCF loop converged in   2 iterations or   37 steps

  
  Eigenvalues of the occupied subspace spin            1
 ---------------------------------------------
      -0.81891446     -0.81673141     -0.81456334     -0.81283761
      -0.81110286     -0.80936816     -0.80894703     -0.80816639
      -0.80798687     -0.80614228     -0.80419131     -0.80224494
      -0.80122070     -0.80076860     -0.79915728     -0.79795109
      -0.79769666     -0.79565650     -0.79505972     -0.79333710
      -0.79291697     -0.79205858     -0.79134148     -0.79093820
      -0.78922757     -0.78878486     -0.78848976     -0.78816399
      -0.78673276     -0.78421737     -0.78288772     -0.78215182
      -0.78171288     -0.78159676     -0.78122840     -0.78061236
      -0.78008842     -0.77877245     -0.77847392     -0.77757407
      -0.77640667     -0.77562946     -0.77456890     -0.77403022
      -0.77291664     -0.77146944     -0.77090691     -0.76957042
      -0.76895285     -0.76803365     -0.76678436     -0.76549998
      -0.76397491     -0.76341471     -0.75969540     -0.75734041
      -0.75601897     -0.75442610     -0.75312867     -0.75039068
      -0.74898505     -0.74579381     -0.73863673     -0.73191682
      -0.38263144     -0.37282255     -0.37064098     -0.37040783
      -0.36942485     -0.36759824     -0.36642664     -0.36573770
      -0.36467212     -0.36416976     -0.36389220     -0.36224227
      -0.36007568     -0.35963606     -0.35846380     -0.35739733
      -0.35707603     -0.35675035     -0.35475859     -0.35378854
      -0.35293869     -0.35187336     -0.35059068     -0.35011960
      -0.34766931     -0.34729193     -0.34659302     -0.34636982
      -0.34435501     -0.34423531     -0.34345730     -0.34281267
      -0.34150664     -0.34047946     -0.33969062     -0.33867633
      -0.33850659     -0.33745461     -0.33724942     -0.33679298
      -0.33645785     -0.33507365     -0.33436393     -0.33368495
      -0.33282026     -0.33167279     -0.33072597     -0.32977614
      -0.32894844     -0.32840077     -0.32648886     -0.32585021
      -0.32486651     -0.32205509     -0.32175378     -0.31721960
      -0.31637759     -0.31416007     -0.31349885     -0.30862632
      -0.30845867     -0.30499942     -0.30030196     -0.28768276
      -0.26427909     -0.26024217     -0.25716927     -0.25670650
      -0.25459606     -0.25279945     -0.25105736     -0.24856308
      -0.24753301     -0.24429473     -0.24220530     -0.24116298
      -0.23714929     -0.23562717     -0.23291249     -0.23163941
      -0.23043730     -0.22963247     -0.22903284     -0.22833990
      -0.22537939     -0.22384593     -0.22012426     -0.21912220
      -0.21770311     -0.21647921     -0.21589213     -0.21270630
      -0.21176200     -0.21018302     -0.20801147     -0.20663006
      -0.20551138     -0.20472581     -0.20417081     -0.20384861
      -0.20097347     -0.20063008     -0.19861379     -0.19694192
      -0.19637698     -0.19489230     -0.19351078     -0.19257467
      -0.19152293     -0.19061389     -0.18866174     -0.18729371
      -0.18641170     -0.18532129     -0.18427678     -0.18239692
      -0.18130290     -0.17965860     -0.17940155     -0.17661564
      -0.17592905     -0.17442714     -0.17208477     -0.17155532
      -0.16997662     -0.16893070     -0.15997830     -0.15355665
      -0.15276164     -0.15122042     -0.14958400     -0.14856284
      -0.14821724     -0.14789956     -0.14748740     -0.14641192
      -0.14587563     -0.14394080     -0.14304579     -0.14232431
      -0.14198583     -0.14060270     -0.14017828     -0.13857900
      -0.13817554     -0.13763938     -0.13683556     -0.13660968
      -0.13543358     -0.13522683     -0.13497940     -0.13414497
      -0.13384138     -0.13334465     -0.13317101     -0.13232941
      -0.13150023     -0.13064805     -0.13057008     -0.13002307
      -0.12881209     -0.12820216     -0.12763756     -0.12635705
      -0.12588412     -0.12559192     -0.12496010     -0.12450245
      -0.12315982     -0.12228350     -0.12154151     -0.12090036
      -0.12060728     -0.12022928     -0.11972684     -0.11874361
      -0.11852555     -0.11801646     -0.11749707     -0.11658528
      -0.11642882     -0.11610780     -0.11370467     -0.11125155
      -0.11048373     -0.10987949     -0.10813065     -0.10731821
      -0.10474082     -0.10070132     -0.09769358     -0.09583102
 Fermi Energy [eV] :   -2.607695
  
  Lowest Eigenvalues of the unoccupied subspace spin            1
 -----------------------------------------------------
  Reached convergence in          123  iterations 
       0.07667537      0.11892728      0.12589538      0.12946460
  
 HOMO - LUMO gap [eV] :    4.694137

 ENERGY| Total FORCE_EVAL ( QS ) energy [a.u.]:            -1102.629448593683264

 MD_INI| MD initialization
 MD_INI| Potential energy [hartree]                          -0.110262944859E+04
 MD_INI| Kinetic energy [hartree]                             0.273612845660E+00
 MD_INI| Temperature [K]                                              300.000000
 MD_INI| Cell volume [bohr^3]                                 1.292889458088E+04
 MD_INI| Cell volume [ang^3]                                  1.915864488000E+03
 MD_INI| Cell lengths [bohr]      2.34703986E+01  2.34703986E+01  2.34703986E+01
 MD_INI| Cell lengths [ang]       1.24200000E+01  1.24200000E+01  1.24200000E+01
 MD_INI| Cell angles [deg]        9.00000000E+01  9.00000000E+01  9.00000000E+01

 Number of electrons:                                                        512
 Number of occupied orbitals:                                                256
 Number of molecular orbitals:                                               256

 Number of orbital functions:                                               1472
 Number of independent orbital functions:                                   1472

 Extrapolation method: ASPC


 SCF WAVEFUNCTION OPTIMIZATION

  ----------------------------------- OT ---------------------------------------
  Minimizer      : DIIS                : direct inversion
                                         in the iterative subspace
                                         using   7 DIIS vectors
                                         safer DIIS on
  Preconditioner : FULL_SINGLE_INVERSE : inversion of 
                                         H + eS - 2*(Sc)(c^T*H*c+const)(Sc)^T
  Precond_solver : DEFAULT
  stepsize       :    0.08000000                  energy_gap     :    0.08000000
  eps_taylor     :   0.10000E-15                  max_taylor     :             4
  ----------------------------------- OT ---------------------------------------

  Step     Update method      Time    Convergence         Total energy    Change
  ------------------------------------------------------------------------------
     1 OT DIIS     0.80E-01   36.9     0.00034046     -1102.6304176094 -1.10E+03
     2 OT DIIS     0.80E-01   16.2     0.00019745     -1102.6331037509 -2.69E-03
     3 OT DIIS     0.80E-01   16.3     0.00007577     -1102.6344773216 -1.37E-03
     4 OT DIIS     0.80E-01   15.6     0.00002954     -1102.6346907058 -2.13E-04
     5 OT DIIS     0.80E-01   16.3     0.00000773     -1102.6347259712 -3.53E-05
     6 OT DIIS     0.80E-01   16.6     0.00000328     -1102.6347280327 -2.06E-06
     7 OT DIIS     0.80E-01   16.4     0.00000122     -1102.6347284210 -3.88E-07
     8 OT DIIS     0.80E-01   16.0     0.00000045     -1102.6347284790 -5.80E-08

  *** SCF run converged in     8 steps ***


  Electronic density on regular grids:       -511.9999999887        0.0000000113
  Core density on regular grids:              511.9999999832       -0.0000000168
  Total charge density on r-space grids:       -0.0000000055
  Total charge density g-space grids:          -0.0000000055

  Overlap energy of the core charge distribution:               0.00000225102562
  Self energy of the core charge distribution:              -2838.21791979120962
  Core Hamiltonian energy:                                    829.71048620422891
  Hartree energy:                                            1177.98225822932341
  Exchange-correlation energy:                               -271.86378560956643
  Dispersion energy:                                           -0.24576976278306

  Total energy:                                             -1102.63472847898106

  outer SCF iter =    1 RMS gradient =   0.45E-06 energy =      -1102.6347284790
  outer SCF loop converged in   1 iterations or    8 steps


 ENERGY| Total FORCE_EVAL ( QS ) energy [a.u.]:            -1102.634728486577160

 MD| ***************************************************************************
 MD| Step number                                                               1
 MD| Time [fs]                                                          0.500000
 MD| Conserved quantity [hartree]                            -0.110235603271E+04
 MD| ---------------------------------------------------------------------------
 MD|                                          Instantaneous             Averages
 MD| CPU time per MD step [s]                   2753.579175          2753.579175
 MD| Energy drift per atom [K]          -0.323937301923E+00   0.000000000000E+00
 MD| Potential energy [hartree]         -0.110263472849E+04  -0.110263472849E+04
 MD| Kinetic energy [hartree]            0.279633819380E+00   0.279633819380E+00
 MD| Temperature [K]                             306.601635           306.601635
 MD| ***************************************************************************

 Number of electrons:                                                        512
 Number of occupied orbitals:                                                256
 Number of molecular orbitals:                                               256

 Number of orbital functions:                                               1472
 Number of independent orbital functions:                                   1472

 Extrapolation method: ASPC


 SCF WAVEFUNCTION OPTIMIZATION

  ----------------------------------- OT ---------------------------------------
  Minimizer      : DIIS                : direct inversion
                                         in the iterative subspace
                                         using   7 DIIS vectors
                                         safer DIIS on
  Preconditioner : FULL_SINGLE_INVERSE : inversion of 
                                         H + eS - 2*(Sc)(c^T*H*c+const)(Sc)^T
  Precond_solver : DEFAULT
  stepsize       :    0.08000000                  energy_gap     :    0.08000000
  eps_taylor     :   0.10000E-15                  max_taylor     :             4
  ----------------------------------- OT ---------------------------------------

  Step     Update method      Time    Convergence         Total energy    Change
  ------------------------------------------------------------------------------
     1 OT DIIS     0.80E-01   39.7     0.00018397     -1102.6424921758 -1.10E+03
     2 OT DIIS     0.80E-01   16.0     0.00010287     -1102.6432649588 -7.73E-04
     3 OT DIIS     0.80E-01   16.3     0.00003893     -1102.6436235979 -3.59E-04
     4 OT DIIS     0.80E-01   16.2     0.00001574     -1102.6436776336 -5.40E-05
     5 OT DIIS     0.80E-01   16.1     0.00000405     -1102.6436876537 -1.00E-05
     6 OT DIIS     0.80E-01   16.6     0.00000164     -1102.6436882287 -5.75E-07
     7 OT DIIS     0.80E-01   16.7     0.00000063     -1102.6436883250 -9.63E-08

  *** SCF run converged in     7 steps ***


  Electronic density on regular grids:       -511.9999999888        0.0000000112
  Core density on regular grids:              511.9999999831       -0.0000000169
  Total charge density on r-space grids:       -0.0000000057
  Total charge density g-space grids:          -0.0000000057

  Overlap energy of the core charge distribution:               0.00000200487868
  Self energy of the core charge distribution:              -2838.21791979120962
  Core Hamiltonian energy:                                    829.17514811023466
  Hartree energy:                                            1178.35483062461071
  Exchange-correlation energy:                               -271.71002372775024
  Dispersion energy:                                           -0.24572554576212

  Total energy:                                             -1102.64368832499781

  outer SCF iter =    1 RMS gradient =   0.63E-06 energy =      -1102.6436883250
  outer SCF loop converged in   1 iterations or    7 steps


 ENERGY| Total FORCE_EVAL ( QS ) energy [a.u.]:            -1102.643688340113840

 MD| ***************************************************************************
 MD| Step number                                                               2
 MD| Time [fs]                                                          1.000000
 MD| Conserved quantity [hartree]                            -0.110235628532E+04
 MD| ---------------------------------------------------------------------------
 MD|                                          Instantaneous             Averages
 MD| CPU time per MD step [s]                    166.941137          1460.260156
 MD| Energy drift per atom [K]          -0.739395655870E+00  -0.369697827935E+00
 MD| Potential energy [hartree]         -0.110264368834E+04  -0.110263920841E+04
 MD| Kinetic energy [hartree]            0.278176227929E+00   0.278905023654E+00
 MD| Temperature [K]                             305.003474           305.802554
 MD| ***************************************************************************

 Number of electrons:                                                        512
 Number of occupied orbitals:                                                256
 Number of molecular orbitals:                                               256

 Number of orbital functions:                                               1472
 Number of independent orbital functions:                                   1472

 Extrapolation method: ASPC


 SCF WAVEFUNCTION OPTIMIZATION

  ----------------------------------- OT ---------------------------------------
  Minimizer      : DIIS                : direct inversion
                                         in the iterative subspace
                                         using   7 DIIS vectors
                                         safer DIIS on
  Preconditioner : FULL_SINGLE_INVERSE : inversion of 
                                         H + eS - 2*(Sc)(c^T*H*c+const)(Sc)^T
  Precond_solver : DEFAULT
  stepsize       :    0.08000000                  energy_gap     :    0.08000000
  eps_taylor     :   0.10000E-15                  max_taylor     :             4
  ----------------------------------- OT ---------------------------------------

  Step     Update method      Time    Convergence         Total energy    Change
  ------------------------------------------------------------------------------
     1 OT DIIS     0.80E-01   38.3     0.00018090     -1102.6518939868 -1.10E+03
     2 OT DIIS     0.80E-01   16.3     0.00010306     -1102.6526467768 -7.53E-04
     3 OT DIIS     0.80E-01   16.2     0.00003970     -1102.6530133343 -3.67E-04
     4 OT DIIS     0.80E-01   16.4     0.00001592     -1102.6530698075 -5.65E-05
     5 OT DIIS     0.80E-01   16.4     0.00000398     -1102.6530800430 -1.02E-05
     6 OT DIIS     0.80E-01   16.5     0.00000160     -1102.6530805986 -5.56E-07
     7 OT DIIS     0.80E-01   16.2     0.00000063     -1102.6530806878 -8.92E-08

  *** SCF run converged in     7 steps ***


  Electronic density on regular grids:       -511.9999999888        0.0000000112
  Core density on regular grids:              511.9999999832       -0.0000000168
  Total charge density on r-space grids:       -0.0000000056
  Total charge density g-space grids:          -0.0000000056

  Overlap energy of the core charge distribution:               0.00000171680908
  Self energy of the core charge distribution:              -2838.21791979120962
  Core Hamiltonian energy:                                    828.50401945313683
  Hartree energy:                                            1178.82314837065542
  Exchange-correlation energy:                               -271.51664546331847
  Dispersion energy:                                           -0.24568497384075

  Total energy:                                             -1102.65308068776744

  outer SCF iter =    1 RMS gradient =   0.63E-06 energy =      -1102.6530806878
  outer SCF loop converged in   1 iterations or    7 steps


 ENERGY| Total FORCE_EVAL ( QS ) energy [a.u.]:            -1102.653080702780471

 MD| ***************************************************************************
 MD| Step number                                                               3
 MD| Time [fs]                                                          1.500000
 MD| Conserved quantity [hartree]                            -0.110235654729E+04
 MD| ---------------------------------------------------------------------------
 MD|                                          Instantaneous             Averages
 MD| CPU time per MD step [s]                    167.705163          1029.408492
 MD| Energy drift per atom [K]          -0.117024262502E+01  -0.636546093632E+00
 MD| Potential energy [hartree]         -0.110265308070E+04  -0.110264383251E+04
 MD| Kinetic energy [hartree]            0.280393421610E+00   0.279401156306E+00
 MD| Temperature [K]                             307.434493           306.346534
 MD| ***************************************************************************

 Number of electrons:                                                        512
 Number of occupied orbitals:                                                256
 Number of molecular orbitals:                                               256

 Number of orbital functions:                                               1472
 Number of independent orbital functions:                                   1472

 Extrapolation method: ASPC


 SCF WAVEFUNCTION OPTIMIZATION

  ----------------------------------- OT ---------------------------------------
  Minimizer      : DIIS                : direct inversion
                                         in the iterative subspace
                                         using   7 DIIS vectors
                                         safer DIIS on
  Preconditioner : FULL_SINGLE_INVERSE : inversion of 
                                         H + eS - 2*(Sc)(c^T*H*c+const)(Sc)^T
  Precond_solver : DEFAULT
  stepsize       :    0.08000000                  energy_gap     :    0.08000000
  eps_taylor     :   0.10000E-15                  max_taylor     :             4
  ----------------------------------- OT ---------------------------------------

  Step     Update method      Time    Convergence         Total energy    Change
  ------------------------------------------------------------------------------
     1 OT DIIS     0.80E-01   37.3     0.00019361     -1102.6544650067 -1.10E+03
     2 OT DIIS     0.80E-01   16.4     0.00011267     -1102.6553349944 -8.70E-04
     3 OT DIIS     0.80E-01   16.4     0.00004336     -1102.6557823845 -4.47E-04
     4 OT DIIS     0.80E-01   16.5     0.00001677     -1102.6558505904 -6.82E-05
     5 OT DIIS     0.80E-01   16.5     0.00000434     -1102.6558618148 -1.12E-05
     6 OT DIIS     0.80E-01   16.6     0.00000173     -1102.6558624763 -6.62E-07
     7 OT DIIS     0.80E-01   16.6     0.00000068     -1102.6558625818 -1.06E-07

  *** SCF run converged in     7 steps ***


  Electronic density on regular grids:       -511.9999999888        0.0000000112
  Core density on regular grids:              511.9999999832       -0.0000000168
  Total charge density on r-space grids:       -0.0000000056
  Total charge density g-space grids:          -0.0000000056

  Overlap energy of the core charge distribution:               0.00000149167359
  Self energy of the core charge distribution:              -2838.21791979120962
  Core Hamiltonian energy:                                    827.80093442639600
  Hartree energy:                                            1179.31888483431976
  Exchange-correlation energy:                               -271.31214076360112
  Dispersion energy:                                           -0.24562277941011

  Total energy:                                             -1102.65586258183134

  outer SCF iter =    1 RMS gradient =   0.68E-06 energy =      -1102.6558625818
  outer SCF loop converged in   1 iterations or    7 steps


 ENERGY| Total FORCE_EVAL ( QS ) energy [a.u.]:            -1102.655862599757256

 MD| ***************************************************************************
 MD| Step number                                                               4
 MD| Time [fs]                                                          2.000000
 MD| Conserved quantity [hartree]                            -0.110235659345E+04
 MD| ---------------------------------------------------------------------------
 MD|                                          Instantaneous             Averages
 MD| CPU time per MD step [s]                    170.629145           814.713655
 MD| Energy drift per atom [K]          -0.124616541147E+01  -0.788950923090E+00
 MD| Potential energy [hartree]         -0.110265586260E+04  -0.110264684003E+04
 MD| Kinetic energy [hartree]            0.282889483215E+00   0.280273238034E+00
 MD| Temperature [K]                             310.171274           307.302719
 MD| ***************************************************************************

 Number of electrons:                                                        512
 Number of occupied orbitals:                                                256
 Number of molecular orbitals:                                               256

 Number of orbital functions:                                               1472
 Number of independent orbital functions:                                   1472

 Extrapolation method: ASPC


 SCF WAVEFUNCTION OPTIMIZATION

  ----------------------------------- OT ---------------------------------------
  Minimizer      : DIIS                : direct inversion
                                         in the iterative subspace
                                         using   7 DIIS vectors
                                         safer DIIS on
  Preconditioner : FULL_SINGLE_INVERSE : inversion of 
                                         H + eS - 2*(Sc)(c^T*H*c+const)(Sc)^T
  Precond_solver : DEFAULT
  stepsize       :    0.08000000                  energy_gap     :    0.08000000
  eps_taylor     :   0.10000E-15                  max_taylor     :             4
  ----------------------------------- OT ---------------------------------------

  Step     Update method      Time    Convergence         Total energy    Change
  ------------------------------------------------------------------------------
     1 OT DIIS     0.80E-01   38.4     0.00022861     -1102.6514523416 -1.10E+03
     2 OT DIIS     0.80E-01   16.4     0.00013256     -1102.6526648239 -1.21E-03
     3 OT DIIS     0.80E-01   16.3     0.00005022     -1102.6532843304 -6.20E-04
     4 OT DIIS     0.80E-01   16.3     0.00001980     -1102.6533749800 -9.06E-05
     5 OT DIIS     0.80E-01   16.4     0.00000507     -1102.6533906478 -1.57E-05
     6 OT DIIS     0.80E-01   16.6     0.00000207     -1102.6533915444 -8.97E-07
     7 OT DIIS     0.80E-01   16.0     0.00000080     -1102.6533916963 -1.52E-07

  *** SCF run converged in     7 steps ***


  Electronic density on regular grids:       -511.9999999888        0.0000000112
  Core density on regular grids:              511.9999999832       -0.0000000168
  Total charge density on r-space grids:       -0.0000000056
  Total charge density g-space grids:          -0.0000000056

  Overlap energy of the core charge distribution:               0.00000131041750
  Self energy of the core charge distribution:              -2838.21791979120962
  Core Hamiltonian energy:                                    827.10380720904868
  Hartree energy:                                            1179.81421392478615
  Exchange-correlation energy:                               -271.10793511464033
  Dispersion energy:                                           -0.24555923466415

  Total energy:                                             -1102.65339169626168

  outer SCF iter =    1 RMS gradient =   0.80E-06 energy =      -1102.6533916963
  outer SCF loop converged in   1 iterations or    7 steps


 ENERGY| Total FORCE_EVAL ( QS ) energy [a.u.]:            -1102.653391721298703

 MD| ***************************************************************************
 MD| Step number                                                               5
 MD| Time [fs]                                                          2.500000
 MD| Conserved quantity [hartree]                            -0.110235650540E+04
 MD| ---------------------------------------------------------------------------
 MD|                                          Instantaneous             Averages
 MD| CPU time per MD step [s]                    173.536193           686.478163
 MD| Energy drift per atom [K]          -0.110134841012E+01  -0.851430420496E+00
 MD| Potential energy [hartree]         -0.110265339172E+04  -0.110264815037E+04
 MD| Kinetic energy [hartree]            0.294372845708E+00   0.283093159568E+00
 MD| Temperature [K]                             322.762089           310.394593
 MD| ***************************************************************************

 Number of electrons:                                                        512
 Number of occupied orbitals:                                                256
 Number of molecular orbitals:                                               256

 Number of orbital functions:                                               1472
 Number of independent orbital functions:                                   1472

 Extrapolation method: ASPC


 SCF WAVEFUNCTION OPTIMIZATION

  ----------------------------------- OT ---------------------------------------
  Minimizer      : DIIS                : direct inversion
                                         in the iterative subspace
                                         using   7 DIIS vectors
                                         safer DIIS on
  Preconditioner : FULL_SINGLE_INVERSE : inversion of 
                                         H + eS - 2*(Sc)(c^T*H*c+const)(Sc)^T
  Precond_solver : DEFAULT
  stepsize       :    0.08000000                  energy_gap     :    0.08000000
  eps_taylor     :   0.10000E-15                  max_taylor     :             4
  ----------------------------------- OT ---------------------------------------

  Step     Update method      Time    Convergence         Total energy    Change
  ------------------------------------------------------------------------------
     1 OT DIIS     0.80E-01   37.6     0.00020953     -1102.6424123316 -1.10E+03
     2 OT DIIS     0.80E-01   16.3     0.00012081     -1102.6434263953 -1.01E-03
     3 OT DIIS     0.80E-01   16.4     0.00004715     -1102.6439331644 -5.07E-04
     4 OT DIIS     0.80E-01   16.4     0.00001836     -1102.6440126543 -7.95E-05
     5 OT DIIS     0.80E-01   16.2     0.00000474     -1102.6440261560 -1.35E-05
     6 OT DIIS     0.80E-01   16.2     0.00000188     -1102.6440269497 -7.94E-07
     7 OT DIIS     0.80E-01   16.4     0.00000073     -1102.6440270740 -1.24E-07

  *** SCF run converged in     7 steps ***


  Electronic density on regular grids:       -511.9999999888        0.0000000112
  Core density on regular grids:              511.9999999831       -0.0000000169
  Total charge density on r-space grids:       -0.0000000057
  Total charge density g-space grids:          -0.0000000057

  Overlap energy of the core charge distribution:               0.00000119038032
  Self energy of the core charge distribution:              -2838.21791979120962
  Core Hamiltonian energy:                                    826.46721337942438
  Hartree energy:                                            1180.27127616443295
  Exchange-correlation energy:                               -270.91907959552793
  Dispersion energy:                                           -0.24551842150473

  Total energy:                                             -1102.64402707400473

  outer SCF iter =    1 RMS gradient =   0.73E-06 energy =      -1102.6440270740
  outer SCF loop converged in   1 iterations or    7 steps


 ENERGY| Total FORCE_EVAL ( QS ) energy [a.u.]:            -1102.644027094365583

 MD| ***************************************************************************
 MD| Step number                                                               6
 MD| Time [fs]                                                          3.000000
 MD| Conserved quantity [hartree]                            -0.110235629211E+04
 MD| ---------------------------------------------------------------------------
 MD|                                          Instantaneous             Averages
 MD| CPU time per MD step [s]                    173.132117           600.920488
 MD| Energy drift per atom [K]          -0.750564364798E+00  -0.834619411213E+00
 MD| Potential energy [hartree]         -0.110264402709E+04  -0.110264746316E+04
 MD| Kinetic energy [hartree]            0.293202259578E+00   0.284778009570E+00
 MD| Temperature [K]                             321.478612           312.241930
 MD| ***************************************************************************

 Number of electrons:                                                        512
 Number of occupied orbitals:                                                256
 Number of molecular orbitals:                                               256

 Number of orbital functions:                                               1472
 Number of independent orbital functions:                                   1472

 Extrapolation method: ASPC


 SCF WAVEFUNCTION OPTIMIZATION

  ----------------------------------- OT ---------------------------------------
  Minimizer      : DIIS                : direct inversion
                                         in the iterative subspace
                                         using   7 DIIS vectors
                                         safer DIIS on
  Preconditioner : FULL_SINGLE_INVERSE : inversion of 
                                         H + eS - 2*(Sc)(c^T*H*c+const)(Sc)^T
  Precond_solver : DEFAULT
  stepsize       :    0.08000000                  energy_gap     :    0.08000000
  eps_taylor     :   0.10000E-15                  max_taylor     :             4
  ----------------------------------- OT ---------------------------------------

  Step     Update method      Time    Convergence         Total energy    Change
  ------------------------------------------------------------------------------
     1 OT DIIS     0.80E-01   37.4     0.00020751     -1102.6294593485 -1.10E+03
     2 OT DIIS     0.80E-01   16.0     0.00012025     -1102.6304599600 -1.00E-03
     3 OT DIIS     0.80E-01   16.1     0.00004428     -1102.6309732018 -5.13E-04
     4 OT DIIS     0.80E-01   16.3     0.00001799     -1102.6310430060 -6.98E-05
     5 OT DIIS     0.80E-01   16.3     0.00000474     -1102.6310559827 -1.30E-05
     6 OT DIIS     0.80E-01   16.0     0.00000188     -1102.6310567806 -7.98E-07
     7 OT DIIS     0.80E-01   16.6     0.00000076     -1102.6310569051 -1.25E-07

  *** SCF run converged in     7 steps ***


  Electronic density on regular grids:       -511.9999999889        0.0000000111
  Core density on regular grids:              511.9999999832       -0.0000000168
  Total charge density on r-space grids:       -0.0000000057
  Total charge density g-space grids:          -0.0000000057

  Overlap energy of the core charge distribution:               0.00000109908053
  Self energy of the core charge distribution:              -2838.21791979120962
  Core Hamiltonian energy:                                    825.89433110185701
  Hartree energy:                                            1180.68661333251794
  Exchange-correlation energy:                               -270.74857996337357
  Dispersion energy:                                           -0.24550268401076

  Total energy:                                             -1102.63105690513839

  outer SCF iter =    1 RMS gradient =   0.76E-06 energy =      -1102.6310569051
  outer SCF loop converged in   1 iterations or    7 steps


 ENERGY| Total FORCE_EVAL ( QS ) energy [a.u.]:            -1102.631056927460804

 MD| ***************************************************************************
 MD| Step number                                                               7
 MD| Time [fs]                                                          3.500000
 MD| Conserved quantity [hartree]                            -0.110235602313E+04
 MD| ---------------------------------------------------------------------------
 MD|                                          Instantaneous             Averages
 MD| CPU time per MD step [s]                    171.148110           539.524434
 MD| Energy drift per atom [K]          -0.308179571485E+00  -0.759413719823E+00
 MD| Potential energy [hartree]         -0.110263105693E+04  -0.110264511941E+04
 MD| Kinetic energy [hartree]            0.275739442563E+00   0.283486785712E+00
 MD| Temperature [K]                             302.331685           310.826180
 MD| ***************************************************************************

 Number of electrons:                                                        512
 Number of occupied orbitals:                                                256
 Number of molecular orbitals:                                               256

 Number of orbital functions:                                               1472
 Number of independent orbital functions:                                   1472

 Extrapolation method: ASPC


 SCF WAVEFUNCTION OPTIMIZATION

  ----------------------------------- OT ---------------------------------------
  Minimizer      : DIIS                : direct inversion
                                         in the iterative subspace
                                         using   7 DIIS vectors
                                         safer DIIS on
  Preconditioner : FULL_SINGLE_INVERSE : inversion of 
                                         H + eS - 2*(Sc)(c^T*H*c+const)(Sc)^T
  Precond_solver : DEFAULT
  stepsize       :    0.08000000                  energy_gap     :    0.08000000
  eps_taylor     :   0.10000E-15                  max_taylor     :             4
  ----------------------------------- OT ---------------------------------------

  Step     Update method      Time    Convergence         Total energy    Change
  ------------------------------------------------------------------------------
     1 OT DIIS     0.80E-01   40.5     0.00019687     -1102.6183234831 -1.10E+03
     2 OT DIIS     0.80E-01   15.9     0.00011474     -1102.6192250313 -9.02E-04
     3 OT DIIS     0.80E-01   16.0     0.00004320     -1102.6196920607 -4.67E-04
     4 OT DIIS     0.80E-01   16.7     0.00001706     -1102.6197585653 -6.65E-05
     5 OT DIIS     0.80E-01   16.7     0.00000463     -1102.6197701472 -1.16E-05
     6 OT DIIS     0.80E-01   16.3     0.00000190     -1102.6197708951 -7.48E-07
     7 OT DIIS     0.80E-01   16.4     0.00000075     -1102.6197710208 -1.26E-07

  *** SCF run converged in     7 steps ***


  Electronic density on regular grids:       -511.9999999889        0.0000000111
  Core density on regular grids:              511.9999999832       -0.0000000168
  Total charge density on r-space grids:       -0.0000000057
  Total charge density g-space grids:          -0.0000000057

  Overlap energy of the core charge distribution:               0.00000105926528
  Self energy of the core charge distribution:              -2838.21791979120962
  Core Hamiltonian energy:                                    825.52878487519195
  Hartree energy:                                            1180.95443025375880
  Exchange-correlation energy:                               -270.63956633586258
  Dispersion energy:                                           -0.24550108190954

  Total energy:                                             -1102.61977102076594

  outer SCF iter =    1 RMS gradient =   0.75E-06 energy =      -1102.6197710208
  outer SCF loop converged in   1 iterations or    7 steps


 ENERGY| Total FORCE_EVAL ( QS ) energy [a.u.]:            -1102.619771042450566

 MD| ***************************************************************************
 MD| Step number                                                               8
 MD| Time [fs]                                                          4.000000
 MD| Conserved quantity [hartree]                            -0.110235579590E+04
 MD| ---------------------------------------------------------------------------
 MD|                                          Instantaneous             Averages
 MD| CPU time per MD step [s]                    175.157139           493.978522
 MD| Energy drift per atom [K]           0.655384185369E-01  -0.656294702528E+00
 MD| Potential energy [hartree]         -0.110261977104E+04  -0.110264195086E+04
 MD| Kinetic energy [hartree]            0.264614578241E+00   0.281127759778E+00
 MD| Temperature [K]                             290.133942           308.239651
 MD| ***************************************************************************

 Number of electrons:                                                        512
 Number of occupied orbitals:                                                256
 Number of molecular orbitals:                                               256

 Number of orbital functions:                                               1472
 Number of independent orbital functions:                                   1472

 Extrapolation method: ASPC


 SCF WAVEFUNCTION OPTIMIZATION

  ----------------------------------- OT ---------------------------------------
  Minimizer      : DIIS                : direct inversion
                                         in the iterative subspace
                                         using   7 DIIS vectors
                                         safer DIIS on
  Preconditioner : FULL_SINGLE_INVERSE : inversion of 
                                         H + eS - 2*(Sc)(c^T*H*c+const)(Sc)^T
  Precond_solver : DEFAULT
  stepsize       :    0.08000000                  energy_gap     :    0.08000000
  eps_taylor     :   0.10000E-15                  max_taylor     :             4
  ----------------------------------- OT ---------------------------------------

  Step     Update method      Time    Convergence         Total energy    Change
  ------------------------------------------------------------------------------
     1 OT DIIS     0.80E-01   37.6     0.00020268     -1102.6120648135 -1.10E+03
     2 OT DIIS     0.80E-01   15.8     0.00011995     -1102.6130303276 -9.66E-04
     3 OT DIIS     0.80E-01   16.7     0.00004218     -1102.6135587301 -5.28E-04
     4 OT DIIS     0.80E-01   16.4     0.00001726     -1102.6136222586 -6.35E-05
     5 OT DIIS     0.80E-01   16.4     0.00000455     -1102.6136340690 -1.18E-05
     6 OT DIIS     0.80E-01   16.1     0.00000184     -1102.6136347889 -7.20E-07
     7 OT DIIS     0.80E-01   16.2     0.00000074     -1102.6136349060 -1.17E-07

  *** SCF run converged in     7 steps ***


  Electronic density on regular grids:       -511.9999999889        0.0000000111
  Core density on regular grids:              511.9999999831       -0.0000000169
  Total charge density on r-space grids:       -0.0000000058
  Total charge density g-space grids:          -0.0000000058

  Overlap energy of the core charge distribution:               0.00000104244378
  Self energy of the core charge distribution:              -2838.21791979120962
  Core Hamiltonian energy:                                    825.34019662479670
  Hartree energy:                                            1181.09356578699999
  Exchange-correlation energy:                               -270.58396488444356
  Dispersion energy:                                           -0.24551368457052

  Total energy:                                             -1102.61363490598342

  outer SCF iter =    1 RMS gradient =   0.74E-06 energy =      -1102.6136349060
  outer SCF loop converged in   1 iterations or    7 steps


 ENERGY| Total FORCE_EVAL ( QS ) energy [a.u.]:            -1102.613634926849500

 MD| ***************************************************************************
 MD| Step number                                                               9
 MD| Time [fs]                                                          4.500000
 MD| Conserved quantity [hartree]                            -0.110235568947E+04
 MD| ---------------------------------------------------------------------------
 MD|                                          Instantaneous             Averages
 MD| CPU time per MD step [s]                    171.690161           458.168704
 MD| Energy drift per atom [K]           0.240579670945E+00  -0.556641994364E+00
 MD| Potential energy [hartree]         -0.110261363493E+04  -0.110263880465E+04
 MD| Kinetic energy [hartree]            0.268857947775E+00   0.279764447333E+00
 MD| Temperature [K]                             294.786541           306.744861
 MD| ***************************************************************************

 Number of electrons:                                                        512
 Number of occupied orbitals:                                                256
 Number of molecular orbitals:                                               256

 Number of orbital functions:                                               1472
 Number of independent orbital functions:                                   1472

 Extrapolation method: ASPC


 SCF WAVEFUNCTION OPTIMIZATION

  ----------------------------------- OT ---------------------------------------
  Minimizer      : DIIS                : direct inversion
                                         in the iterative subspace
                                         using   7 DIIS vectors
                                         safer DIIS on
  Preconditioner : FULL_SINGLE_INVERSE : inversion of 
                                         H + eS - 2*(Sc)(c^T*H*c+const)(Sc)^T
  Precond_solver : DEFAULT
  stepsize       :    0.08000000                  energy_gap     :    0.08000000
  eps_taylor     :   0.10000E-15                  max_taylor     :             4
  ----------------------------------- OT ---------------------------------------

  Step     Update method      Time    Convergence         Total energy    Change
  ------------------------------------------------------------------------------
     1 OT DIIS     0.80E-01   37.6     0.00021194     -1102.6103823923 -1.10E+03
     2 OT DIIS     0.80E-01   16.2     0.00012483     -1102.6114291395 -1.05E-03
     3 OT DIIS     0.80E-01   15.8     0.00004897     -1102.6119815428 -5.52E-04
     4 OT DIIS     0.80E-01   16.1     0.00001829     -1102.6120684467 -8.69E-05
     5 OT DIIS     0.80E-01   15.8     0.00000506     -1102.6120815828 -1.31E-05
     6 OT DIIS     0.80E-01   16.1     0.00000209     -1102.6120824521 -8.69E-07
     7 OT DIIS     0.80E-01   16.3     0.00000081     -1102.6120826043 -1.52E-07

  *** SCF run converged in     7 steps ***


  Electronic density on regular grids:       -511.9999999888        0.0000000112
  Core density on regular grids:              511.9999999832       -0.0000000168
  Total charge density on r-space grids:       -0.0000000056
  Total charge density g-space grids:          -0.0000000056

  Overlap energy of the core charge distribution:               0.00000102618400
  Self energy of the core charge distribution:              -2838.21791979120962
  Core Hamiltonian energy:                                    825.28089391017215
  Hartree energy:                                            1181.13858783736373
  Exchange-correlation energy:                               -270.56809735569379
  Dispersion energy:                                           -0.24554823116416

  Total energy:                                             -1102.61208260434773

  outer SCF iter =    1 RMS gradient =   0.81E-06 energy =      -1102.6120826043
  outer SCF loop converged in   1 iterations or    7 steps

  
  Eigenvalues of the occupied subspace spin            1
 ---------------------------------------------
      -0.81981041     -0.81465506     -0.80674250     -0.80446189
      -0.80207351     -0.79840247     -0.79649248     -0.79588138
      -0.79433906     -0.79257723     -0.79170582     -0.79071231
      -0.78971864     -0.78888634     -0.78816903     -0.78764800
      -0.78601777     -0.78525247     -0.78406059     -0.78227548
      -0.78179238     -0.78116113     -0.78043886     -0.77946957
      -0.77924773     -0.77873447     -0.77753857     -0.77607898
      -0.77455524     -0.77440453     -0.77433920     -0.77285404
      -0.77167180     -0.77114795     -0.77043591     -0.76960455
      -0.76913236     -0.76894320     -0.76724722     -0.76705077
      -0.76501220     -0.76463246     -0.76395378     -0.76335799
      -0.76247704     -0.76159912     -0.76060860     -0.76040065
      -0.75946285     -0.75848877     -0.75817329     -0.75714239
      -0.75615777     -0.75514915     -0.75472627     -0.75318107
      -0.74868412     -0.74805163     -0.74691547     -0.74556520
      -0.74399931     -0.74288082     -0.73738218     -0.72889259
      -0.37452740     -0.36547239     -0.35937952     -0.35920158
      -0.35781383     -0.35442113     -0.35254211     -0.35216327
      -0.35069489     -0.35020473     -0.34844301     -0.34798883
      -0.34580221     -0.34406974     -0.34378099     -0.34258364
      -0.34068219     -0.34017763     -0.33957544     -0.33871808
      -0.33833045     -0.33772727     -0.33637551     -0.33565769
      -0.33477578     -0.33458717     -0.33405235     -0.33312118
      -0.33252458     -0.33183551     -0.33123467     -0.33085496
      -0.33037129     -0.32939529     -0.32863187     -0.32794463
      -0.32753866     -0.32582515     -0.32531526     -0.32437885
      -0.32288373     -0.32193945     -0.32066010     -0.31936947
      -0.31829436     -0.31780274     -0.31757765     -0.31720890
      -0.31593916     -0.31574534     -0.31520344     -0.31505696
      -0.31427491     -0.31318850     -0.31178593     -0.31102949
      -0.31071475     -0.30994207     -0.30559375     -0.30497233
      -0.30290081     -0.30118102     -0.30040944     -0.30018095
      -0.26810506     -0.26518314     -0.26100535     -0.25822528
      -0.25445318     -0.25022319     -0.24906369     -0.24891591
      -0.24650207     -0.24400882     -0.24170695     -0.24067164
      -0.23775318     -0.23721597     -0.23403423     -0.23275152
      -0.23160071     -0.23025588     -0.22862782     -0.22814562
      -0.22567605     -0.22322472     -0.22090418     -0.22053922
      -0.21945904     -0.21786499     -0.21559175     -0.21354962
      -0.21148523     -0.21082773     -0.20935572     -0.20870638
      -0.20683151     -0.20588501     -0.20402642     -0.20322264
      -0.20287204     -0.20066625     -0.19932192     -0.19745510
      -0.19628830     -0.19436393     -0.19363972     -0.19252351
      -0.19083388     -0.18990444     -0.18868414     -0.18809063
      -0.18740679     -0.18669636     -0.18446243     -0.18355279
      -0.18146348     -0.17997169     -0.17850080     -0.17625395
      -0.17478743     -0.17340578     -0.17062493     -0.16991148
      -0.16905942     -0.16603394     -0.16322870     -0.15957762
      -0.15358916     -0.15067187     -0.14757118     -0.14631691
      -0.14442448     -0.14433190     -0.14250079     -0.14169546
      -0.14091901     -0.14062347     -0.13929307     -0.13861418
      -0.13818378     -0.13770782     -0.13658316     -0.13648388
      -0.13595650     -0.13526091     -0.13485556     -0.13437031
      -0.13421153     -0.13368860     -0.13335669     -0.13182044
      -0.13169540     -0.13085268     -0.13060917     -0.12976401
      -0.12917480     -0.12874856     -0.12864568     -0.12740287
      -0.12721676     -0.12674530     -0.12631050     -0.12593325
      -0.12562122     -0.12509179     -0.12378892     -0.12324310
      -0.12224741     -0.12088953     -0.11992835     -0.11961328
      -0.11894941     -0.11836063     -0.11818207     -0.11762218
      -0.11727217     -0.11694585     -0.11615173     -0.11507433
      -0.11445777     -0.11340697     -0.11251745     -0.11234411
      -0.11117165     -0.11009041     -0.10840369     -0.10415203
      -0.10320399     -0.10246858     -0.09604900     -0.09483919
 Fermi Energy [eV] :   -2.580706
  
  Lowest Eigenvalues of the unoccupied subspace spin            1
 -----------------------------------------------------
  Reached convergence in           89  iterations 
       0.07040697      0.11488087      0.11862236      0.12120713
  
 HOMO - LUMO gap [eV] :    4.496577

 ENERGY| Total FORCE_EVAL ( QS ) energy [a.u.]:            -1102.612082629094630

 MD| ***************************************************************************
 MD| Step number                                                              10
 MD| Time [fs]                                                          5.000000
 MD| Conserved quantity [hartree]                            -0.110235566673E+04
 MD| ---------------------------------------------------------------------------
 MD|                                          Instantaneous             Averages
 MD| CPU time per MD step [s]                   1166.745079           529.026342
 MD| Energy drift per atom [K]           0.277984981571E+00  -0.473179296771E+00
 MD| Potential energy [hartree]         -0.110261208263E+04  -0.110263613245E+04
 MD| Kinetic energy [hartree]            0.262607548452E+00   0.278048757445E+00
 MD| Temperature [K]                             287.933355           304.863710
 MD| ***************************************************************************

 Number of electrons:                                                        512
 Number of occupied orbitals:                                                256
 Number of molecular orbitals:                                               256

 Number of orbital functions:                                               1472
 Number of independent orbital functions:                                   1472

 Extrapolation method: ASPC


 SCF WAVEFUNCTION OPTIMIZATION

  ----------------------------------- OT ---------------------------------------
  Minimizer      : DIIS                : direct inversion
                                         in the iterative subspace
                                         using   7 DIIS vectors
                                         safer DIIS on
  Preconditioner : FULL_SINGLE_INVERSE : inversion of 
                                         H + eS - 2*(Sc)(c^T*H*c+const)(Sc)^T
  Precond_solver : DEFAULT
  stepsize       :    0.08000000                  energy_gap     :    0.08000000
  eps_taylor     :   0.10000E-15                  max_taylor     :             4
  ----------------------------------- OT ---------------------------------------

  Step     Update method      Time    Convergence         Total energy    Change
  ------------------------------------------------------------------------------
     1 OT DIIS     0.80E-01   37.3     0.00022093     -1102.6149814275 -1.10E+03
     2 OT DIIS     0.80E-01   16.1     0.00012735     -1102.6161086215 -1.13E-03
     3 OT DIIS     0.80E-01   16.4     0.00004963     -1102.6166715152 -5.63E-04
     4 OT DIIS     0.80E-01   16.2     0.00001924     -1102.6167599048 -8.84E-05
     5 OT DIIS     0.80E-01   15.9     0.00000530     -1102.6167746361 -1.47E-05
     6 OT DIIS     0.80E-01   16.2     0.00000216     -1102.6167756043 -9.68E-07
     7 OT DIIS     0.80E-01   16.1     0.00000083     -1102.6167757658 -1.62E-07

  *** SCF run converged in     7 steps ***


  Electronic density on regular grids:       -511.9999999887        0.0000000113
  Core density on regular grids:              511.9999999832       -0.0000000168
  Total charge density on r-space grids:       -0.0000000055
  Total charge density g-space grids:          -0.0000000055

  Overlap energy of the core charge distribution:               0.00000103738906
  Self energy of the core charge distribution:              -2838.21791979120962
  Core Hamiltonian energy:                                    825.49455086570447
  Hartree energy:                                            1180.98700399652648
  Exchange-correlation energy:                               -270.63481027385922
  Dispersion energy:                                           -0.24560160035062

  Total energy:                                             -1102.61677576579950

  outer SCF iter =    1 RMS gradient =   0.83E-06 energy =      -1102.6167757658
  outer SCF loop converged in   1 iterations or    7 steps


 ENERGY| Total FORCE_EVAL ( QS ) energy [a.u.]:            -1102.616775791589816

 MD| ***************************************************************************
 MD| Step number                                                              11
 MD| Time [fs]                                                          5.500000
 MD| Conserved quantity [hartree]                            -0.110235578325E+04
 MD| ---------------------------------------------------------------------------
 MD|                                          Instantaneous             Averages
 MD| CPU time per MD step [s]                    170.287091           496.413683
 MD| Energy drift per atom [K]           0.863415934818E-01  -0.422313761293E+00
 MD| Potential energy [hartree]         -0.110261677579E+04  -0.110263437275E+04
 MD| Kinetic energy [hartree]            0.288697191582E+00   0.279016796912E+00
 MD| Temperature [K]                             316.539076           305.925107
 MD| ***************************************************************************

 Number of electrons:                                                        512
 Number of occupied orbitals:                                                256
 Number of molecular orbitals:                                               256

 Number of orbital functions:                                               1472
 Number of independent orbital functions:                                   1472

 Extrapolation method: ASPC


 SCF WAVEFUNCTION OPTIMIZATION

  ----------------------------------- OT ---------------------------------------
  Minimizer      : DIIS                : direct inversion
                                         in the iterative subspace
                                         using   7 DIIS vectors
                                         safer DIIS on
  Preconditioner : FULL_SINGLE_INVERSE : inversion of 
                                         H + eS - 2*(Sc)(c^T*H*c+const)(Sc)^T
  Precond_solver : DEFAULT
  stepsize       :    0.08000000                  energy_gap     :    0.08000000
  eps_taylor     :   0.10000E-15                  max_taylor     :             4
  ----------------------------------- OT ---------------------------------------

  Step     Update method      Time    Convergence         Total energy    Change
  ------------------------------------------------------------------------------
     1 OT DIIS     0.80E-01   37.0     0.00022691     -1102.6209408150 -1.10E+03
     2 OT DIIS     0.80E-01   16.4     0.00012998     -1102.6221244171 -1.18E-03
     3 OT DIIS     0.80E-01   16.4     0.00005177     -1102.6227012317 -5.77E-04
     4 OT DIIS     0.80E-01   16.6     0.00001972     -1102.6227966311 -9.54E-05
     5 OT DIIS     0.80E-01   16.4     0.00000556     -1102.6228120010 -1.54E-05
     6 OT DIIS     0.80E-01   16.1     0.00000227     -1102.6228130544 -1.05E-06
     7 OT DIIS     0.80E-01   16.5     0.00000084     -1102.6228132335 -1.79E-07

  *** SCF run converged in     7 steps ***


  Electronic density on regular grids:       -511.9999999888        0.0000000112
  Core density on regular grids:              511.9999999832       -0.0000000168
  Total charge density on r-space grids:       -0.0000000056
  Total charge density g-space grids:          -0.0000000056

  Overlap energy of the core charge distribution:               0.00000104995800
  Self energy of the core charge distribution:              -2838.21791979120962
  Core Hamiltonian energy:                                    825.71899220686703
  Hartree energy:                                            1180.82655293748894
  Exchange-correlation energy:                               -270.70480667703907
  Dispersion energy:                                           -0.24563295961067

  Total energy:                                             -1102.62281323354546

  outer SCF iter =    1 RMS gradient =   0.84E-06 energy =      -1102.6228132335
  outer SCF loop converged in   1 iterations or    7 steps


 ENERGY| Total FORCE_EVAL ( QS ) energy [a.u.]:            -1102.622813259867144

 MD| ***************************************************************************
 MD| Step number                                                              12
 MD| Time [fs]                                                          6.000000
 MD| Conserved quantity [hartree]                            -0.110235593795E+04
 MD| ---------------------------------------------------------------------------
 MD|                                          Instantaneous             Averages
 MD| CPU time per MD step [s]                    171.699168           469.354140
 MD| Energy drift per atom [K]          -0.168087411875E+00  -0.401128232175E+00
 MD| Potential energy [hartree]         -0.110262281326E+04  -0.110263340946E+04
 MD| Kinetic energy [hartree]            0.295096610856E+00   0.280356781408E+00
 MD| Temperature [K]                             323.555654           307.394319
 MD| ***************************************************************************

 Number of electrons:                                                        512
 Number of occupied orbitals:                                                256
 Number of molecular orbitals:                                               256

 Number of orbital functions:                                               1472
 Number of independent orbital functions:                                   1472

 Extrapolation method: ASPC


 SCF WAVEFUNCTION OPTIMIZATION

  ----------------------------------- OT ---------------------------------------
  Minimizer      : DIIS                : direct inversion
                                         in the iterative subspace
                                         using   7 DIIS vectors
                                         safer DIIS on
  Preconditioner : FULL_SINGLE_INVERSE : inversion of 
                                         H + eS - 2*(Sc)(c^T*H*c+const)(Sc)^T
  Precond_solver : DEFAULT
  stepsize       :    0.08000000                  energy_gap     :    0.08000000
  eps_taylor     :   0.10000E-15                  max_taylor     :             4
  ----------------------------------- OT ---------------------------------------

  Step     Update method      Time    Convergence         Total energy    Change
  ------------------------------------------------------------------------------
     1 OT DIIS     0.80E-01   39.6     0.00023372     -1102.6272727074 -1.10E+03
     2 OT DIIS     0.80E-01   16.3     0.00013330     -1102.6285248197 -1.25E-03
     3 OT DIIS     0.80E-01   16.5     0.00005373     -1102.6291285342 -6.04E-04
     4 OT DIIS     0.80E-01   16.1     0.00002032     -1102.6292329858 -1.04E-04
     5 OT DIIS     0.80E-01   16.5     0.00000555     -1102.6292493948 -1.64E-05
     6 OT DIIS     0.80E-01   16.3     0.00000230     -1102.6292504428 -1.05E-06
     7 OT DIIS     0.80E-01   16.3     0.00000087     -1102.6292506268 -1.84E-07

  *** SCF run converged in     7 steps ***


  Electronic density on regular grids:       -511.9999999890        0.0000000110
  Core density on regular grids:              511.9999999832       -0.0000000168
  Total charge density on r-space grids:       -0.0000000057
  Total charge density g-space grids:          -0.0000000057

  Overlap energy of the core charge distribution:               0.00000109887464
  Self energy of the core charge distribution:              -2838.21791979120962
  Core Hamiltonian energy:                                    826.04313865590552
[...]
 MD| Potential energy [hartree]         -0.110265641678E+04  -0.110264635093E+04
 MD| Kinetic energy [hartree]            0.277406893531E+00   0.281918814017E+00
 MD| Temperature [K]                             304.159945           309.106994
 MD| ***************************************************************************

 Number of electrons:                                                        512
 Number of occupied orbitals:                                                256
 Number of molecular orbitals:                                               256

 Number of orbital functions:                                               1472
 Number of independent orbital functions:                                   1472

 Extrapolation method: ASPC


 SCF WAVEFUNCTION OPTIMIZATION

  ----------------------------------- OT ---------------------------------------
  Minimizer      : DIIS                : direct inversion
                                         in the iterative subspace
                                         using   7 DIIS vectors
                                         safer DIIS on
  Preconditioner : FULL_SINGLE_INVERSE : inversion of 
                                         H + eS - 2*(Sc)(c^T*H*c+const)(Sc)^T
  Precond_solver : DEFAULT
  stepsize       :    0.08000000                  energy_gap     :    0.08000000
  eps_taylor     :   0.10000E-15                  max_taylor     :             4
  ----------------------------------- OT ---------------------------------------

  Step     Update method      Time    Convergence         Total energy    Change
  ------------------------------------------------------------------------------
     1 OT DIIS     0.80E-01   39.2     0.00023079     -1102.6526634918 -1.10E+03
     2 OT DIIS     0.80E-01   16.0     0.00013314     -1102.6538922501 -1.23E-03
     3 OT DIIS     0.80E-01   16.3     0.00005254     -1102.6545065044 -6.14E-04
     4 OT DIIS     0.80E-01   16.2     0.00001992     -1102.6546083874 -1.02E-04
     5 OT DIIS     0.80E-01   16.3     0.00000518     -1102.6546243598 -1.60E-05
     6 OT DIIS     0.80E-01   15.7     0.00000215     -1102.6546252937 -9.34E-07
     7 OT DIIS     0.80E-01   16.4     0.00000083     -1102.6546254585 -1.65E-07

  *** SCF run converged in     7 steps ***


  Electronic density on regular grids:       -511.9999999888        0.0000000112
  Core density on regular grids:              511.9999999832       -0.0000000168
  Total charge density on r-space grids:       -0.0000000056
  Total charge density g-space grids:          -0.0000000056

  Overlap energy of the core charge distribution:               0.00000135132072
  Self energy of the core charge distribution:              -2838.21791979120962
  Core Hamiltonian energy:                                    826.71498892777856
  Hartree energy:                                            1180.11309006607735
  Exchange-correlation energy:                               -271.01874638636934
  Dispersion energy:                                           -0.24603962606827

  Total energy:                                             -1102.65462545847072

  outer SCF iter =    1 RMS gradient =   0.83E-06 energy =      -1102.6546254585
  outer SCF loop converged in   1 iterations or    7 steps


 ENERGY| Total FORCE_EVAL ( QS ) energy [a.u.]:            -1102.654625484793314

 MD| ***************************************************************************
 MD| Step number                                                              67
 MD| Time [fs]                                                         33.500000
 MD| Conserved quantity [hartree]                            -0.110235609535E+04
 MD| ---------------------------------------------------------------------------
 MD|                                          Instantaneous             Averages
 MD| CPU time per MD step [s]                    173.130408           313.429741
 MD| Energy drift per atom [K]          -0.426949930676E+00  -0.447915360294E+00
 MD| Potential energy [hartree]         -0.110265462548E+04  -0.110264647443E+04
 MD| Kinetic energy [hartree]            0.269359450696E+00   0.281731360833E+00
 MD| Temperature [K]                             295.336409           308.901463
 MD| ***************************************************************************

 Number of electrons:                                                        512
 Number of occupied orbitals:                                                256
 Number of molecular orbitals:                                               256

 Number of orbital functions:                                               1472
 Number of independent orbital functions:                                   1472

 Extrapolation method: ASPC


 SCF WAVEFUNCTION OPTIMIZATION

  ----------------------------------- OT ---------------------------------------
  Minimizer      : DIIS                : direct inversion
                                         in the iterative subspace
                                         using   7 DIIS vectors
                                         safer DIIS on
  Preconditioner : FULL_SINGLE_INVERSE : inversion of 
                                         H + eS - 2*(Sc)(c^T*H*c+const)(Sc)^T
  Precond_solver : DEFAULT
  stepsize       :    0.08000000                  energy_gap     :    0.08000000
  eps_taylor     :   0.10000E-15                  max_taylor     :             4
  ----------------------------------- OT ---------------------------------------

  Step     Update method      Time    Convergence         Total energy    Change
  ------------------------------------------------------------------------------
     1 OT DIIS     0.80E-01   40.9     0.00020258     -1102.6542141175 -1.10E+03
     2 OT DIIS     0.80E-01   15.8     0.00011820     -1102.6551667894 -9.53E-04
     3 OT DIIS     0.80E-01   16.1     0.00004577     -1102.6556585339 -4.92E-04
     4 OT DIIS     0.80E-01   15.8     0.00001727     -1102.6557353467 -7.68E-05
     5 OT DIIS     0.80E-01   15.6     0.00000456     -1102.6557472776 -1.19E-05
     6 OT DIIS     0.80E-01   16.3     0.00000186     -1102.6557480108 -7.33E-07
     7 OT DIIS     0.80E-01   16.0     0.00000075     -1102.6557481339 -1.23E-07

  *** SCF run converged in     7 steps ***


  Electronic density on regular grids:       -511.9999999889        0.0000000111
  Core density on regular grids:              511.9999999832       -0.0000000168
  Total charge density on r-space grids:       -0.0000000058
  Total charge density g-space grids:          -0.0000000058

  Overlap energy of the core charge distribution:               0.00000131778169
  Self energy of the core charge distribution:              -2838.21791979120962
  Core Hamiltonian energy:                                    826.63495632570778
  Hartree energy:                                            1180.16879875799941
  Exchange-correlation energy:                               -270.99554130928789
  Dispersion energy:                                           -0.24604343492718

  Total energy:                                             -1102.65574813393596

  outer SCF iter =    1 RMS gradient =   0.75E-06 energy =      -1102.6557481339
  outer SCF loop converged in   1 iterations or    7 steps


 ENERGY| Total FORCE_EVAL ( QS ) energy [a.u.]:            -1102.655748155959373

 MD| ***************************************************************************
 MD| Step number                                                              68
 MD| Time [fs]                                                         34.000000
 MD| Conserved quantity [hartree]                            -0.110235611923E+04
 MD| ---------------------------------------------------------------------------
 MD|                                          Instantaneous             Averages
 MD| CPU time per MD step [s]                    172.540169           311.357836
 MD| Energy drift per atom [K]          -0.466223845064E+00  -0.448184602717E+00
 MD| Potential energy [hartree]         -0.110265574816E+04  -0.110264661081E+04
 MD| Kinetic energy [hartree]            0.284279323957E+00   0.281768830879E+00
 MD| Temperature [K]                             311.695151           308.942546
 MD| ***************************************************************************

 Number of electrons:                                                        512
 Number of occupied orbitals:                                                256
 Number of molecular orbitals:                                               256

 Number of orbital functions:                                               1472
 Number of independent orbital functions:                                   1472

 Extrapolation method: ASPC


 SCF WAVEFUNCTION OPTIMIZATION

  ----------------------------------- OT ---------------------------------------
  Minimizer      : DIIS                : direct inversion
                                         in the iterative subspace
                                         using   7 DIIS vectors
                                         safer DIIS on
  Preconditioner : FULL_SINGLE_INVERSE : inversion of 
                                         H + eS - 2*(Sc)(c^T*H*c+const)(Sc)^T
  Precond_solver : DEFAULT
  stepsize       :    0.08000000                  energy_gap     :    0.08000000
  eps_taylor     :   0.10000E-15                  max_taylor     :             4
  ----------------------------------- OT ---------------------------------------

  Step     Update method      Time    Convergence         Total energy    Change
  ------------------------------------------------------------------------------
     1 OT DIIS     0.80E-01   38.2     0.00019798     -1102.6615797091 -1.10E+03
     2 OT DIIS     0.80E-01   16.2     0.00011569     -1102.6624931486 -9.13E-04
     3 OT DIIS     0.80E-01   16.1     0.00004282     -1102.6629715713 -4.78E-04
     4 OT DIIS     0.80E-01   16.5     0.00001691     -1102.6630379913 -6.64E-05
     5 OT DIIS     0.80E-01   16.3     0.00000438     -1102.6630494017 -1.14E-05
     6 OT DIIS     0.80E-01   16.2     0.00000180     -1102.6630500715 -6.70E-07
     7 OT DIIS     0.80E-01   16.4     0.00000070     -1102.6630501853 -1.14E-07

  *** SCF run converged in     7 steps ***


  Electronic density on regular grids:       -511.9999999889        0.0000000111
  Core density on regular grids:              511.9999999832       -0.0000000168
  Total charge density on r-space grids:       -0.0000000058
  Total charge density g-space grids:          -0.0000000058

  Overlap energy of the core charge distribution:               0.00000123289984
  Self energy of the core charge distribution:              -2838.21791979120962
  Core Hamiltonian energy:                                    826.54556244491528
  Hartree energy:                                            1180.22634014136884
  Exchange-correlation energy:                               -270.97099030314416
  Dispersion energy:                                           -0.24604391011015

  Total energy:                                             -1102.66305018528010

  outer SCF iter =    1 RMS gradient =   0.70E-06 energy =      -1102.6630501853
  outer SCF loop converged in   1 iterations or    7 steps


 ENERGY| Total FORCE_EVAL ( QS ) energy [a.u.]:            -1102.663050204548654

 MD| ***************************************************************************
 MD| Step number                                                              69
 MD| Time [fs]                                                         34.500000
 MD| Conserved quantity [hartree]                            -0.110235627408E+04
 MD| ---------------------------------------------------------------------------
 MD|                                          Instantaneous             Averages
 MD| CPU time per MD step [s]                    171.723263           309.334147
 MD| Energy drift per atom [K]          -0.720899695588E+00  -0.452136995367E+00
 MD| Potential energy [hartree]         -0.110266305020E+04  -0.110264684906E+04
 MD| Kinetic energy [hartree]            0.307167001563E+00   0.282136920309E+00
 MD| Temperature [K]                             336.790110           309.346134
 MD| ***************************************************************************

 Number of electrons:                                                        512
 Number of occupied orbitals:                                                256
 Number of molecular orbitals:                                               256

 Number of orbital functions:                                               1472
 Number of independent orbital functions:                                   1472

 Extrapolation method: ASPC


 SCF WAVEFUNCTION OPTIMIZATION

  ----------------------------------- OT ---------------------------------------
  Minimizer      : DIIS                : direct inversion
                                         in the iterative subspace
                                         using   7 DIIS vectors
                                         safer DIIS on
  Preconditioner : FULL_SINGLE_INVERSE : inversion of 
                                         H + eS - 2*(Sc)(c^T*H*c+const)(Sc)^T
  Precond_solver : DEFAULT
  stepsize       :    0.08000000                  energy_gap     :    0.08000000
  eps_taylor     :   0.10000E-15                  max_taylor     :             4
  ----------------------------------- OT ---------------------------------------

  Step     Update method      Time    Convergence         Total energy    Change
  ------------------------------------------------------------------------------
     1 OT DIIS     0.80E-01   37.8     0.00021792     -1102.6668116146 -1.10E+03
     2 OT DIIS     0.80E-01   16.1     0.00012620     -1102.6679145099 -1.10E-03
     3 OT DIIS     0.80E-01   16.4     0.00004675     -1102.6684780377 -5.64E-04
     4 OT DIIS     0.80E-01   16.3     0.00001900     -1102.6685553384 -7.73E-05
     5 OT DIIS     0.80E-01   16.5     0.00000493     -1102.6685698236 -1.45E-05
     6 OT DIIS     0.80E-01   16.4     0.00000197     -1102.6685706733 -8.50E-07
     7 OT DIIS     0.80E-01   16.5     0.00000078     -1102.6685708067 -1.33E-07

  *** SCF run converged in     7 steps ***


  Electronic density on regular grids:       -511.9999999890        0.0000000110
  Core density on regular grids:              511.9999999831       -0.0000000169
  Total charge density on r-space grids:       -0.0000000059
  Total charge density g-space grids:          -0.0000000059

  Overlap energy of the core charge distribution:               0.00000122052592
  Self energy of the core charge distribution:              -2838.21791979120962
  Core Hamiltonian energy:                                    826.62598776695108
  Hartree energy:                                            1180.16517031569947
  Exchange-correlation energy:                               -270.99573328490277
  Dispersion energy:                                           -0.24607703378760

  Total energy:                                             -1102.66857080672344

  outer SCF iter =    1 RMS gradient =   0.78E-06 energy =      -1102.6685708067
  outer SCF loop converged in   1 iterations or    7 steps

  
  Eigenvalues of the occupied subspace spin            1
 ---------------------------------------------
      -0.82259861     -0.81284116     -0.81196042     -0.80927314
      -0.80670143     -0.80582913     -0.80474407     -0.80213381
      -0.80153937     -0.80047805     -0.80018330     -0.79703937
      -0.79607003     -0.79454325     -0.79364423     -0.79281626
      -0.79168564     -0.79093223     -0.79023138     -0.78912279
      -0.78841615     -0.78752112     -0.78634055     -0.78588556
      -0.78564343     -0.78523982     -0.78477796     -0.78366327
      -0.78175129     -0.78074604     -0.78009240     -0.77889587
      -0.77819218     -0.77773963     -0.77681788     -0.77401711
      -0.77234320     -0.77165492     -0.77071205     -0.77025970
      -0.76993209     -0.76837389     -0.76741936     -0.76659428
      -0.76279983     -0.76265260     -0.76173266     -0.76004818
      -0.75929747     -0.75806917     -0.75737678     -0.75656884
      -0.75616269     -0.75423277     -0.75125996     -0.75049674
      -0.74954778     -0.74749840     -0.74699835     -0.74588561
      -0.73801146     -0.73680865     -0.73489908     -0.73342869
      -0.38183638     -0.37060172     -0.36606365     -0.36360841
      -0.35988399     -0.35771257     -0.35716090     -0.35669261
      -0.35489881     -0.35368891     -0.35290802     -0.35112050
      -0.34889185     -0.34711928     -0.34534377     -0.34511522
      -0.34475152     -0.34435008     -0.34330800     -0.34200785
      -0.34172273     -0.34099785     -0.33991345     -0.33933898
      -0.33765552     -0.33623655     -0.33578437     -0.33465354
      -0.33351810     -0.33278531     -0.33256455     -0.33177859
      -0.33036323     -0.32963180     -0.32918878     -0.32804937
      -0.32655800     -0.32599383     -0.32545347     -0.32426854
      -0.32263192     -0.32173900     -0.32100399     -0.31931138
      -0.31894708     -0.31750912     -0.31608589     -0.31552967
      -0.31458133     -0.31442638     -0.31390355     -0.31315305
      -0.31201023     -0.31115638     -0.30825872     -0.30585386
      -0.30546806     -0.30450702     -0.30374990     -0.30105192
      -0.29959777     -0.29840615     -0.29741111     -0.28769332
      -0.26459960     -0.26062042     -0.25896725     -0.25806459
      -0.25743252     -0.25440700     -0.25252072     -0.25087373
      -0.24876395     -0.24349683     -0.24220375     -0.24122763
      -0.23854644     -0.23775454     -0.23632346     -0.23574463
      -0.23505066     -0.23284217     -0.23182959     -0.23139419
      -0.23035242     -0.22699508     -0.22596423     -0.22446051
      -0.22351274     -0.22310711     -0.22018400     -0.21779571
      -0.21657658     -0.21645599     -0.21516928     -0.21418739
      -0.21202108     -0.21059870     -0.20764298     -0.20609877
      -0.20431214     -0.20267848     -0.20247383     -0.20132099
      -0.19990773     -0.19797097     -0.19734335     -0.19569069
      -0.19371366     -0.19273749     -0.19223305     -0.19046847
      -0.18805392     -0.18549272     -0.18512780     -0.18434760
      -0.18285345     -0.18272572     -0.18209204     -0.18069690
      -0.17729957     -0.17353681     -0.17312964     -0.16993510
      -0.16844337     -0.16543981     -0.16417500     -0.16225779
      -0.15814068     -0.15602931     -0.15377687     -0.15175080
      -0.14795399     -0.14675546     -0.14607428     -0.14568794
      -0.14427192     -0.14341853     -0.14165314     -0.14123322
      -0.14039489     -0.13896970     -0.13804657     -0.13770840
      -0.13709472     -0.13682521     -0.13629272     -0.13566203
      -0.13535863     -0.13516709     -0.13435249     -0.13413542
      -0.13312663     -0.13229624     -0.13149236     -0.13147344
      -0.13029805     -0.12945336     -0.12864544     -0.12829418
      -0.12783024     -0.12713482     -0.12689531     -0.12625832
      -0.12545634     -0.12515062     -0.12433200     -0.12412141
      -0.12323518     -0.12276798     -0.12212876     -0.12095468
      -0.11996928     -0.11937848     -0.11877708     -0.11755605
      -0.11479164     -0.11422900     -0.11348428     -0.11238490
      -0.11091241     -0.11016335     -0.10948421     -0.10870378
      -0.10752394     -0.10595947     -0.10494161     -0.10209803
      -0.10168934     -0.10021491     -0.09777614     -0.09243139
 Fermi Energy [eV] :   -2.515186
  
  Lowest Eigenvalues of the unoccupied subspace spin            1
 -----------------------------------------------------
slurmstepd: error: *** JOB 53860989 ON cm047 CANCELLED AT 2024-11-21T21:51:42 DUE TO TIME LIMIT ***
